 DBCSR| CPU Multiplication driver                                           XSMM (U)
 DBCSR| Multrec recursion limit                                              512 (U)
 DBCSR| Multiplication stack size                                           1000 (D)
 DBCSR| Maximum elements for images                                    UNLIMITED (U)
 DBCSR| Multiplicative factor virtual images                                   1 (U)
 DBCSR| Use multiplication densification                                       T (D)
 DBCSR| Multiplication size stacks                                             3 (U)
 DBCSR| Use memory pool for CPU allocation                                     F (U)
 DBCSR| Number of 3D layers                                               SINGLE (U)
 DBCSR| Use MPI memory allocation                                              F (U)
 DBCSR| Use RMA algorithm                                                      F (U)
 DBCSR| Use Communication thread                                               T (U)
 DBCSR| Communication thread load                                             75 (D)
 DBCSR| MPI: My process id                                                     0
 DBCSR| MPI: Number of processes                                             256
 DBCSR| OMP: Current number of threads                                         4
 DBCSR| OMP: Max number of threads                                             4
 DBCSR| Split modifier for TAS multiplication algorithm                  1.0E+00 (U)


  **** **** ******  **  PROGRAM STARTED AT               2025-09-17 20:42:01.959
 ***** ** ***  *** **   PROGRAM STARTED ON                             n2lcn0103
 **    ****   ******    PROGRAM STARTED BY                              metdyn02
 ***** **    ** ** **   PROGRAM PROCESS ID                               2171375
  **** **  *******  **  PROGRAM STARTED IN /scratch/hpc-prf-metdyn/metdyn02_Remi
                                           /14_hBN/aug-SZV-MOLOPT

 CP2K| version string:                 CP2K version 2025.2 (Development Version)
 CP2K| source code revision number:                                  git:8d80afc
 CP2K| cp2kflags: omp libint fftw3 libxc libgrpp elpa parallel scalapack mpi_f08
 CP2K|             cosma xsmm plumed2 spglib libvori libbqb libvdwxc hdf5
 CP2K| is freely available from                            https://www.cp2k.org/
 CP2K| Program compiled at                         Mon Sep  8 11:02:08 CEST 2025
 CP2K| Program compiled on                                              n2login1
 CP2K| Program compiled for                                                local
 CP2K| Data directory path    /opt/software/pc2/EB-SW/software/CP2K/2025.2-foss-
 CP2K| Input file name                                                    GW.inp

 GLOBAL| Force Environment number                                              1
 GLOBAL| Basis set file name                                        BASIS_MOLOPT
 GLOBAL| Potential file name                                  GTH_SOC_POTENTIALS
 GLOBAL| MM Potential file name                                     MM_POTENTIAL
 GLOBAL| Coordinate file name                                      __STD_INPUT__
 GLOBAL| Method name                                                        CP2K
 GLOBAL| Project name                                                        hBN
 GLOBAL| Run type                                                         ENERGY
 GLOBAL| FFT library                                                       FFTW3
 GLOBAL| Diagonalization library                                            ELPA
 GLOBAL| Cholesky decomposition library                                ScaLAPACK
 GLOBAL| DGEMM library                                                      BLAS
 GLOBAL| Minimum number of eigenvectors for ELPA usage                        16
 GLOBAL| Orthonormality check for eigenvectors                          DISABLED
 GLOBAL| Matrix multiplication library                                     COSMA
 GLOBAL| All-to-all communication in single precision                          F
 GLOBAL| FFTs using library dependent lengths                                  F
 GLOBAL| Grid backend                                                       AUTO
 GLOBAL| Global print level                                               MEDIUM
 GLOBAL| MPI I/O enabled                                                       T
 GLOBAL| Total number of message passing processes                           256
 GLOBAL| Number of threads for this process                                    4
 GLOBAL| This output is from process                                           0
 GLOBAL| OpenMP stack size per thread (OMP_STACKSIZE)                    default
 GLOBAL| CPU model name                          AMD EPYC 7763 64-Core Processor
 GLOBAL| CPUID                                                              1002

 MEMORY| system memory details [Kb]
 MEMORY|                        rank 0           min           max       average
 MEMORY| MemTotal           1056620448    1056620432    1056620508    1056620473
 MEMORY| MemFree            1021971740    1021971740    1033604512    1026529136
 MEMORY| Buffers                 45056         40848        236880         74206
 MEMORY| Cached               21046952      11506080      21046952      16596480
 MEMORY| Slab                  3075544       2034636       4786768       2708210
 MEMORY| SReclaimable           836420        427136       1744580        810991
 MEMORY| MemLikelyFree      1043900168    1043215612    1045732736    1044010813


 *** Fundamental physical constants (SI units) ***

 *** Literature: B. J. Mohr and B. N. Taylor,
 ***             CODATA recommended values of the fundamental physical
 ***             constants: 2006, Web Version 5.1
 ***             http://physics.nist.gov/constants

 Speed of light in vacuum [m/s]                             2.99792458000000E+08
 Magnetic constant or permeability of vacuum [N/A**2]       1.25663706143592E-06
 Electric constant or permittivity of vacuum [F/m]          8.85418781762039E-12
 Planck constant (h) [J*s]                                  6.62606896000000E-34
 Planck constant (h-bar) [J*s]                              1.05457162825177E-34
 Elementary charge [C]                                      1.60217648700000E-19
 Electron mass [kg]                                         9.10938215000000E-31
 Electron g factor [ ]                                     -2.00231930436220E+00
 Proton mass [kg]                                           1.67262163700000E-27
 Fine-structure constant                                    7.29735253760000E-03
 Rydberg constant [1/m]                                     1.09737315685270E+07
 Avogadro constant [1/mol]                                  6.02214179000000E+23
 Boltzmann constant [J/K]                                   1.38065040000000E-23
 Atomic mass unit [kg]                                      1.66053878200000E-27
 Bohr radius [m]                                            5.29177208590000E-11

 *** Conversion factors ***

 [u] -> [a.u.]                                              1.82288848426455E+03
 [Angstrom] -> [Bohr] = [a.u.]                              1.88972613288564E+00
 [a.u.] = [Bohr] -> [Angstrom]                              5.29177208590000E-01
 [a.u.] -> [s]                                              2.41888432650478E-17
 [a.u.] -> [fs]                                             2.41888432650478E-02
 [a.u.] -> [J]                                              4.35974393937059E-18
 [a.u.] -> [N]                                              8.23872205491840E-08
 [a.u.] -> [K]                                              3.15774647902944E+05
 [a.u.] -> [kJ/mol]                                         2.62549961709828E+03
 [a.u.] -> [kcal/mol]                                       6.27509468713739E+02
 [a.u.] -> [Pa]                                             2.94210107994716E+13
 [a.u.] -> [bar]                                            2.94210107994716E+08
 [a.u.] -> [atm]                                            2.90362800883016E+08
 [a.u.] -> [eV]                                             2.72113838565563E+01
 [a.u.] -> [Hz]                                             6.57968392072181E+15
 [a.u.] -> [1/cm] (wave numbers)                            2.19474631370540E+05
 [a.u./Bohr**2] -> [1/cm]                                   5.14048714338585E+03
 

 CELL_TOP| Volume [angstrom^3]:                                        81.840700
 CELL_TOP| Vector a [angstrom     2.510     0.000     0.000   |a| =     2.510000
 CELL_TOP| Vector b [angstrom    -1.255     2.174     0.000   |b| =     2.510000
 CELL_TOP| Vector c [angstrom     0.000     0.000    15.000   |c| =    15.000000
 CELL_TOP| Angle (b,c), alpha [degree]:                                90.000000
 CELL_TOP| Angle (a,c), beta  [degree]:                                90.000000
 CELL_TOP| Angle (a,b), gamma [degree]:                               120.000000
 CELL_TOP| Numerically orthorhombic:                                          NO
 CELL_TOP| Periodicity                                                        XY

 GENERATE|  Preliminary Number of Bonds generated:                             0
 GENERATE|  Achieved consistency in connectivity generation.

 CELL| Volume [angstrom^3]:                                            81.840700
 CELL| Vector a [angstrom]:       2.510     0.000     0.000   |a| =     2.510000
 CELL| Vector b [angstrom]:      -1.255     2.174     0.000   |b| =     2.510000
 CELL| Vector c [angstrom]:       0.000     0.000    15.000   |c| =    15.000000
 CELL| Angle (b,c), alpha [degree]:                                    90.000000
 CELL| Angle (a,c), beta  [degree]:                                    90.000000
 CELL| Angle (a,b), gamma [degree]:                                   120.000000
 CELL| Numerically orthorhombic:                                              NO
 CELL| Periodicity                                                            XY

 CELL_REF| Volume [angstrom^3]:                                        81.840700
 CELL_REF| Vector a [angstrom     2.510     0.000     0.000   |a| =     2.510000
 CELL_REF| Vector b [angstrom    -1.255     2.174     0.000   |b| =     2.510000
 CELL_REF| Vector c [angstrom     0.000     0.000    15.000   |c| =    15.000000
 CELL_REF| Angle (b,c), alpha [degree]:                                90.000000
 CELL_REF| Angle (a,c), beta  [degree]:                                90.000000
 CELL_REF| Angle (a,b), gamma [degree]:                               120.000000
 CELL_REF| Numerically orthorhombic:                                          NO
 CELL_REF| Periodicity                                                        XY

 *******************************************************************************
                                    Kpoints
 *******************************************************************************
 BRILLOUIN| K-point scheme                                        Monkhorst-Pack
 BRILLOUIN| K-Point grid                                            32   32    1
 BRILLOUIN| Accuracy in Symmetry determination                      0.100000E-05
 BRILLOUIN| K-Point point group symmetrization                               OFF
 BRILLOUIN| Wavefunction type                                            COMPLEX
 BRILLOUIN| List of Kpoints [2 Pi/Bohr]                                      512
 BRILLOUIN| Number           Weight            X              Y              Z
 BRILLOUIN|     1           0.00195       -0.48438       -0.48438        0.00000
 BRILLOUIN|     2           0.00195       -0.48438       -0.45312        0.00000
 BRILLOUIN|     3           0.00195       -0.48438       -0.42188        0.00000
 BRILLOUIN|     4           0.00195       -0.48438       -0.39062        0.00000
 BRILLOUIN|     5           0.00195       -0.48438       -0.35938        0.00000
 BRILLOUIN|     6           0.00195       -0.48438       -0.32812        0.00000
 BRILLOUIN|     7           0.00195       -0.48438       -0.29688        0.00000
 BRILLOUIN|     8           0.00195       -0.48438       -0.26562        0.00000
 BRILLOUIN|     9           0.00195       -0.48438       -0.23438        0.00000
 BRILLOUIN|    10           0.00195       -0.48438       -0.20312        0.00000
 BRILLOUIN|    11           0.00195       -0.48438       -0.17188        0.00000
 BRILLOUIN|    12           0.00195       -0.48438       -0.14062        0.00000
 BRILLOUIN|    13           0.00195       -0.48438       -0.10938        0.00000
 BRILLOUIN|    14           0.00195       -0.48438       -0.07812        0.00000
 BRILLOUIN|    15           0.00195       -0.48438       -0.04688        0.00000
 BRILLOUIN|    16           0.00195       -0.48438       -0.01562        0.00000
 BRILLOUIN|    17           0.00195       -0.48438        0.01562        0.00000
 BRILLOUIN|    18           0.00195       -0.48438        0.04688        0.00000
 BRILLOUIN|    19           0.00195       -0.48438        0.07812        0.00000
 BRILLOUIN|    20           0.00195       -0.48438        0.10938        0.00000
 BRILLOUIN|    21           0.00195       -0.48438        0.14062        0.00000
 BRILLOUIN|    22           0.00195       -0.48438        0.17188        0.00000
 BRILLOUIN|    23           0.00195       -0.48438        0.20312        0.00000
 BRILLOUIN|    24           0.00195       -0.48438        0.23438        0.00000
 BRILLOUIN|    25           0.00195       -0.48438        0.26562        0.00000
 BRILLOUIN|    26           0.00195       -0.48438        0.29688        0.00000
 BRILLOUIN|    27           0.00195       -0.48438        0.32812        0.00000
 BRILLOUIN|    28           0.00195       -0.48438        0.35938        0.00000
 BRILLOUIN|    29           0.00195       -0.48438        0.39062        0.00000
 BRILLOUIN|    30           0.00195       -0.48438        0.42188        0.00000
 BRILLOUIN|    31           0.00195       -0.48438        0.45312        0.00000
 BRILLOUIN|    32           0.00195       -0.48438        0.48438        0.00000
 BRILLOUIN|    33           0.00195       -0.45312       -0.48438        0.00000
 BRILLOUIN|    34           0.00195       -0.45312       -0.45312        0.00000
 BRILLOUIN|    35           0.00195       -0.45312       -0.42188        0.00000
 BRILLOUIN|    36           0.00195       -0.45312       -0.39062        0.00000
 BRILLOUIN|    37           0.00195       -0.45312       -0.35938        0.00000
 BRILLOUIN|    38           0.00195       -0.45312       -0.32812        0.00000
 BRILLOUIN|    39           0.00195       -0.45312       -0.29688        0.00000
 BRILLOUIN|    40           0.00195       -0.45312       -0.26562        0.00000
 BRILLOUIN|    41           0.00195       -0.45312       -0.23438        0.00000
 BRILLOUIN|    42           0.00195       -0.45312       -0.20312        0.00000
 BRILLOUIN|    43           0.00195       -0.45312       -0.17188        0.00000
 BRILLOUIN|    44           0.00195       -0.45312       -0.14062        0.00000
 BRILLOUIN|    45           0.00195       -0.45312       -0.10938        0.00000
 BRILLOUIN|    46           0.00195       -0.45312       -0.07812        0.00000
 BRILLOUIN|    47           0.00195       -0.45312       -0.04688        0.00000
 BRILLOUIN|    48           0.00195       -0.45312       -0.01562        0.00000
 BRILLOUIN|    49           0.00195       -0.45312        0.01562        0.00000
 BRILLOUIN|    50           0.00195       -0.45312        0.04688        0.00000
 BRILLOUIN|    51           0.00195       -0.45312        0.07812        0.00000
 BRILLOUIN|    52           0.00195       -0.45312        0.10938        0.00000
 BRILLOUIN|    53           0.00195       -0.45312        0.14062        0.00000
 BRILLOUIN|    54           0.00195       -0.45312        0.17188        0.00000
 BRILLOUIN|    55           0.00195       -0.45312        0.20312        0.00000
 BRILLOUIN|    56           0.00195       -0.45312        0.23438        0.00000
 BRILLOUIN|    57           0.00195       -0.45312        0.26562        0.00000
 BRILLOUIN|    58           0.00195       -0.45312        0.29688        0.00000
 BRILLOUIN|    59           0.00195       -0.45312        0.32812        0.00000
 BRILLOUIN|    60           0.00195       -0.45312        0.35938        0.00000
 BRILLOUIN|    61           0.00195       -0.45312        0.39062        0.00000
 BRILLOUIN|    62           0.00195       -0.45312        0.42188        0.00000
 BRILLOUIN|    63           0.00195       -0.45312        0.45312        0.00000
 BRILLOUIN|    64           0.00195       -0.45312        0.48438        0.00000
 BRILLOUIN|    65           0.00195       -0.42188       -0.48438        0.00000
 BRILLOUIN|    66           0.00195       -0.42188       -0.45312        0.00000
 BRILLOUIN|    67           0.00195       -0.42188       -0.42188        0.00000
 BRILLOUIN|    68           0.00195       -0.42188       -0.39062        0.00000
 BRILLOUIN|    69           0.00195       -0.42188       -0.35938        0.00000
 BRILLOUIN|    70           0.00195       -0.42188       -0.32812        0.00000
 BRILLOUIN|    71           0.00195       -0.42188       -0.29688        0.00000
 BRILLOUIN|    72           0.00195       -0.42188       -0.26562        0.00000
 BRILLOUIN|    73           0.00195       -0.42188       -0.23438        0.00000
 BRILLOUIN|    74           0.00195       -0.42188       -0.20312        0.00000
 BRILLOUIN|    75           0.00195       -0.42188       -0.17188        0.00000
 BRILLOUIN|    76           0.00195       -0.42188       -0.14062        0.00000
 BRILLOUIN|    77           0.00195       -0.42188       -0.10938        0.00000
 BRILLOUIN|    78           0.00195       -0.42188       -0.07812        0.00000
 BRILLOUIN|    79           0.00195       -0.42188       -0.04688        0.00000
 BRILLOUIN|    80           0.00195       -0.42188       -0.01562        0.00000
 BRILLOUIN|    81           0.00195       -0.42188        0.01562        0.00000
 BRILLOUIN|    82           0.00195       -0.42188        0.04688        0.00000
 BRILLOUIN|    83           0.00195       -0.42188        0.07812        0.00000
 BRILLOUIN|    84           0.00195       -0.42188        0.10938        0.00000
 BRILLOUIN|    85           0.00195       -0.42188        0.14062        0.00000
 BRILLOUIN|    86           0.00195       -0.42188        0.17188        0.00000
 BRILLOUIN|    87           0.00195       -0.42188        0.20312        0.00000
 BRILLOUIN|    88           0.00195       -0.42188        0.23438        0.00000
 BRILLOUIN|    89           0.00195       -0.42188        0.26562        0.00000
 BRILLOUIN|    90           0.00195       -0.42188        0.29688        0.00000
 BRILLOUIN|    91           0.00195       -0.42188        0.32812        0.00000
 BRILLOUIN|    92           0.00195       -0.42188        0.35938        0.00000
 BRILLOUIN|    93           0.00195       -0.42188        0.39062        0.00000
 BRILLOUIN|    94           0.00195       -0.42188        0.42188        0.00000
 BRILLOUIN|    95           0.00195       -0.42188        0.45312        0.00000
 BRILLOUIN|    96           0.00195       -0.42188        0.48438        0.00000
 BRILLOUIN|    97           0.00195       -0.39062       -0.48438        0.00000
 BRILLOUIN|    98           0.00195       -0.39062       -0.45312        0.00000
 BRILLOUIN|    99           0.00195       -0.39062       -0.42188        0.00000
 BRILLOUIN|   100           0.00195       -0.39062       -0.39062        0.00000
 BRILLOUIN|   101           0.00195       -0.39062       -0.35938        0.00000
 BRILLOUIN|   102           0.00195       -0.39062       -0.32812        0.00000
 BRILLOUIN|   103           0.00195       -0.39062       -0.29688        0.00000
 BRILLOUIN|   104           0.00195       -0.39062       -0.26562        0.00000
 BRILLOUIN|   105           0.00195       -0.39062       -0.23438        0.00000
 BRILLOUIN|   106           0.00195       -0.39062       -0.20312        0.00000
 BRILLOUIN|   107           0.00195       -0.39062       -0.17188        0.00000
 BRILLOUIN|   108           0.00195       -0.39062       -0.14062        0.00000
 BRILLOUIN|   109           0.00195       -0.39062       -0.10938        0.00000
 BRILLOUIN|   110           0.00195       -0.39062       -0.07812        0.00000
 BRILLOUIN|   111           0.00195       -0.39062       -0.04688        0.00000
 BRILLOUIN|   112           0.00195       -0.39062       -0.01562        0.00000
 BRILLOUIN|   113           0.00195       -0.39062        0.01562        0.00000
 BRILLOUIN|   114           0.00195       -0.39062        0.04688        0.00000
 BRILLOUIN|   115           0.00195       -0.39062        0.07812        0.00000
 BRILLOUIN|   116           0.00195       -0.39062        0.10938        0.00000
 BRILLOUIN|   117           0.00195       -0.39062        0.14062        0.00000
 BRILLOUIN|   118           0.00195       -0.39062        0.17188        0.00000
 BRILLOUIN|   119           0.00195       -0.39062        0.20312        0.00000
 BRILLOUIN|   120           0.00195       -0.39062        0.23438        0.00000
 BRILLOUIN|   121           0.00195       -0.39062        0.26562        0.00000
 BRILLOUIN|   122           0.00195       -0.39062        0.29688        0.00000
 BRILLOUIN|   123           0.00195       -0.39062        0.32812        0.00000
 BRILLOUIN|   124           0.00195       -0.39062        0.35938        0.00000
 BRILLOUIN|   125           0.00195       -0.39062        0.39062        0.00000
 BRILLOUIN|   126           0.00195       -0.39062        0.42188        0.00000
 BRILLOUIN|   127           0.00195       -0.39062        0.45312        0.00000
 BRILLOUIN|   128           0.00195       -0.39062        0.48438        0.00000
 BRILLOUIN|   129           0.00195       -0.35938       -0.48438        0.00000
 BRILLOUIN|   130           0.00195       -0.35938       -0.45312        0.00000
 BRILLOUIN|   131           0.00195       -0.35938       -0.42188        0.00000
 BRILLOUIN|   132           0.00195       -0.35938       -0.39062        0.00000
 BRILLOUIN|   133           0.00195       -0.35938       -0.35938        0.00000
 BRILLOUIN|   134           0.00195       -0.35938       -0.32812        0.00000
 BRILLOUIN|   135           0.00195       -0.35938       -0.29688        0.00000
 BRILLOUIN|   136           0.00195       -0.35938       -0.26562        0.00000
 BRILLOUIN|   137           0.00195       -0.35938       -0.23438        0.00000
 BRILLOUIN|   138           0.00195       -0.35938       -0.20312        0.00000
 BRILLOUIN|   139           0.00195       -0.35938       -0.17188        0.00000
 BRILLOUIN|   140           0.00195       -0.35938       -0.14062        0.00000
 BRILLOUIN|   141           0.00195       -0.35938       -0.10938        0.00000
 BRILLOUIN|   142           0.00195       -0.35938       -0.07812        0.00000
 BRILLOUIN|   143           0.00195       -0.35938       -0.04688        0.00000
 BRILLOUIN|   144           0.00195       -0.35938       -0.01562        0.00000
 BRILLOUIN|   145           0.00195       -0.35938        0.01562        0.00000
 BRILLOUIN|   146           0.00195       -0.35938        0.04688        0.00000
 BRILLOUIN|   147           0.00195       -0.35938        0.07812        0.00000
 BRILLOUIN|   148           0.00195       -0.35938        0.10938        0.00000
 BRILLOUIN|   149           0.00195       -0.35938        0.14062        0.00000
 BRILLOUIN|   150           0.00195       -0.35938        0.17188        0.00000
 BRILLOUIN|   151           0.00195       -0.35938        0.20312        0.00000
 BRILLOUIN|   152           0.00195       -0.35938        0.23438        0.00000
 BRILLOUIN|   153           0.00195       -0.35938        0.26562        0.00000
 BRILLOUIN|   154           0.00195       -0.35938        0.29688        0.00000
 BRILLOUIN|   155           0.00195       -0.35938        0.32812        0.00000
 BRILLOUIN|   156           0.00195       -0.35938        0.35938        0.00000
 BRILLOUIN|   157           0.00195       -0.35938        0.39062        0.00000
 BRILLOUIN|   158           0.00195       -0.35938        0.42188        0.00000
 BRILLOUIN|   159           0.00195       -0.35938        0.45312        0.00000
 BRILLOUIN|   160           0.00195       -0.35938        0.48438        0.00000
 BRILLOUIN|   161           0.00195       -0.32812       -0.48438        0.00000
 BRILLOUIN|   162           0.00195       -0.32812       -0.45312        0.00000
 BRILLOUIN|   163           0.00195       -0.32812       -0.42188        0.00000
 BRILLOUIN|   164           0.00195       -0.32812       -0.39062        0.00000
 BRILLOUIN|   165           0.00195       -0.32812       -0.35938        0.00000
 BRILLOUIN|   166           0.00195       -0.32812       -0.32812        0.00000
 BRILLOUIN|   167           0.00195       -0.32812       -0.29688        0.00000
 BRILLOUIN|   168           0.00195       -0.32812       -0.26562        0.00000
 BRILLOUIN|   169           0.00195       -0.32812       -0.23438        0.00000
 BRILLOUIN|   170           0.00195       -0.32812       -0.20312        0.00000
 BRILLOUIN|   171           0.00195       -0.32812       -0.17188        0.00000
 BRILLOUIN|   172           0.00195       -0.32812       -0.14062        0.00000
 BRILLOUIN|   173           0.00195       -0.32812       -0.10938        0.00000
 BRILLOUIN|   174           0.00195       -0.32812       -0.07812        0.00000
 BRILLOUIN|   175           0.00195       -0.32812       -0.04688        0.00000
 BRILLOUIN|   176           0.00195       -0.32812       -0.01562        0.00000
 BRILLOUIN|   177           0.00195       -0.32812        0.01562        0.00000
 BRILLOUIN|   178           0.00195       -0.32812        0.04688        0.00000
 BRILLOUIN|   179           0.00195       -0.32812        0.07812        0.00000
 BRILLOUIN|   180           0.00195       -0.32812        0.10938        0.00000
 BRILLOUIN|   181           0.00195       -0.32812        0.14062        0.00000
 BRILLOUIN|   182           0.00195       -0.32812        0.17188        0.00000
 BRILLOUIN|   183           0.00195       -0.32812        0.20312        0.00000
 BRILLOUIN|   184           0.00195       -0.32812        0.23438        0.00000
 BRILLOUIN|   185           0.00195       -0.32812        0.26562        0.00000
 BRILLOUIN|   186           0.00195       -0.32812        0.29688        0.00000
 BRILLOUIN|   187           0.00195       -0.32812        0.32812        0.00000
 BRILLOUIN|   188           0.00195       -0.32812        0.35938        0.00000
 BRILLOUIN|   189           0.00195       -0.32812        0.39062        0.00000
 BRILLOUIN|   190           0.00195       -0.32812        0.42188        0.00000
 BRILLOUIN|   191           0.00195       -0.32812        0.45312        0.00000
 BRILLOUIN|   192           0.00195       -0.32812        0.48438        0.00000
 BRILLOUIN|   193           0.00195       -0.29688       -0.48438        0.00000
 BRILLOUIN|   194           0.00195       -0.29688       -0.45312        0.00000
 BRILLOUIN|   195           0.00195       -0.29688       -0.42188        0.00000
 BRILLOUIN|   196           0.00195       -0.29688       -0.39062        0.00000
 BRILLOUIN|   197           0.00195       -0.29688       -0.35938        0.00000
 BRILLOUIN|   198           0.00195       -0.29688       -0.32812        0.00000
 BRILLOUIN|   199           0.00195       -0.29688       -0.29688        0.00000
 BRILLOUIN|   200           0.00195       -0.29688       -0.26562        0.00000
 BRILLOUIN|   201           0.00195       -0.29688       -0.23438        0.00000
 BRILLOUIN|   202           0.00195       -0.29688       -0.20312        0.00000
 BRILLOUIN|   203           0.00195       -0.29688       -0.17188        0.00000
 BRILLOUIN|   204           0.00195       -0.29688       -0.14062        0.00000
 BRILLOUIN|   205           0.00195       -0.29688       -0.10938        0.00000
 BRILLOUIN|   206           0.00195       -0.29688       -0.07812        0.00000
 BRILLOUIN|   207           0.00195       -0.29688       -0.04688        0.00000
 BRILLOUIN|   208           0.00195       -0.29688       -0.01562        0.00000
 BRILLOUIN|   209           0.00195       -0.29688        0.01562        0.00000
 BRILLOUIN|   210           0.00195       -0.29688        0.04688        0.00000
 BRILLOUIN|   211           0.00195       -0.29688        0.07812        0.00000
 BRILLOUIN|   212           0.00195       -0.29688        0.10938        0.00000
 BRILLOUIN|   213           0.00195       -0.29688        0.14062        0.00000
 BRILLOUIN|   214           0.00195       -0.29688        0.17188        0.00000
 BRILLOUIN|   215           0.00195       -0.29688        0.20312        0.00000
 BRILLOUIN|   216           0.00195       -0.29688        0.23438        0.00000
 BRILLOUIN|   217           0.00195       -0.29688        0.26562        0.00000
 BRILLOUIN|   218           0.00195       -0.29688        0.29688        0.00000
 BRILLOUIN|   219           0.00195       -0.29688        0.32812        0.00000
 BRILLOUIN|   220           0.00195       -0.29688        0.35938        0.00000
 BRILLOUIN|   221           0.00195       -0.29688        0.39062        0.00000
 BRILLOUIN|   222           0.00195       -0.29688        0.42188        0.00000
 BRILLOUIN|   223           0.00195       -0.29688        0.45312        0.00000
 BRILLOUIN|   224           0.00195       -0.29688        0.48438        0.00000
 BRILLOUIN|   225           0.00195       -0.26562       -0.48438        0.00000
 BRILLOUIN|   226           0.00195       -0.26562       -0.45312        0.00000
 BRILLOUIN|   227           0.00195       -0.26562       -0.42188        0.00000
 BRILLOUIN|   228           0.00195       -0.26562       -0.39062        0.00000
 BRILLOUIN|   229           0.00195       -0.26562       -0.35938        0.00000
 BRILLOUIN|   230           0.00195       -0.26562       -0.32812        0.00000
 BRILLOUIN|   231           0.00195       -0.26562       -0.29688        0.00000
 BRILLOUIN|   232           0.00195       -0.26562       -0.26562        0.00000
 BRILLOUIN|   233           0.00195       -0.26562       -0.23438        0.00000
 BRILLOUIN|   234           0.00195       -0.26562       -0.20312        0.00000
 BRILLOUIN|   235           0.00195       -0.26562       -0.17188        0.00000
 BRILLOUIN|   236           0.00195       -0.26562       -0.14062        0.00000
 BRILLOUIN|   237           0.00195       -0.26562       -0.10938        0.00000
 BRILLOUIN|   238           0.00195       -0.26562       -0.07812        0.00000
 BRILLOUIN|   239           0.00195       -0.26562       -0.04688        0.00000
 BRILLOUIN|   240           0.00195       -0.26562       -0.01562        0.00000
 BRILLOUIN|   241           0.00195       -0.26562        0.01562        0.00000
 BRILLOUIN|   242           0.00195       -0.26562        0.04688        0.00000
 BRILLOUIN|   243           0.00195       -0.26562        0.07812        0.00000
 BRILLOUIN|   244           0.00195       -0.26562        0.10938        0.00000
 BRILLOUIN|   245           0.00195       -0.26562        0.14062        0.00000
 BRILLOUIN|   246           0.00195       -0.26562        0.17188        0.00000
 BRILLOUIN|   247           0.00195       -0.26562        0.20312        0.00000
 BRILLOUIN|   248           0.00195       -0.26562        0.23438        0.00000
 BRILLOUIN|   249           0.00195       -0.26562        0.26562        0.00000
 BRILLOUIN|   250           0.00195       -0.26562        0.29688        0.00000
 BRILLOUIN|   251           0.00195       -0.26562        0.32812        0.00000
 BRILLOUIN|   252           0.00195       -0.26562        0.35938        0.00000
 BRILLOUIN|   253           0.00195       -0.26562        0.39062        0.00000
 BRILLOUIN|   254           0.00195       -0.26562        0.42188        0.00000
 BRILLOUIN|   255           0.00195       -0.26562        0.45312        0.00000
 BRILLOUIN|   256           0.00195       -0.26562        0.48438        0.00000
 BRILLOUIN|   257           0.00195       -0.23438       -0.48438        0.00000
 BRILLOUIN|   258           0.00195       -0.23438       -0.45312        0.00000
 BRILLOUIN|   259           0.00195       -0.23438       -0.42188        0.00000
 BRILLOUIN|   260           0.00195       -0.23438       -0.39062        0.00000
 BRILLOUIN|   261           0.00195       -0.23438       -0.35938        0.00000
 BRILLOUIN|   262           0.00195       -0.23438       -0.32812        0.00000
 BRILLOUIN|   263           0.00195       -0.23438       -0.29688        0.00000
 BRILLOUIN|   264           0.00195       -0.23438       -0.26562        0.00000
 BRILLOUIN|   265           0.00195       -0.23438       -0.23438        0.00000
 BRILLOUIN|   266           0.00195       -0.23438       -0.20312        0.00000
 BRILLOUIN|   267           0.00195       -0.23438       -0.17188        0.00000
 BRILLOUIN|   268           0.00195       -0.23438       -0.14062        0.00000
 BRILLOUIN|   269           0.00195       -0.23438       -0.10938        0.00000
 BRILLOUIN|   270           0.00195       -0.23438       -0.07812        0.00000
 BRILLOUIN|   271           0.00195       -0.23438       -0.04688        0.00000
 BRILLOUIN|   272           0.00195       -0.23438       -0.01562        0.00000
 BRILLOUIN|   273           0.00195       -0.23438        0.01562        0.00000
 BRILLOUIN|   274           0.00195       -0.23438        0.04688        0.00000
 BRILLOUIN|   275           0.00195       -0.23438        0.07812        0.00000
 BRILLOUIN|   276           0.00195       -0.23438        0.10938        0.00000
 BRILLOUIN|   277           0.00195       -0.23438        0.14062        0.00000
 BRILLOUIN|   278           0.00195       -0.23438        0.17188        0.00000
 BRILLOUIN|   279           0.00195       -0.23438        0.20312        0.00000
 BRILLOUIN|   280           0.00195       -0.23438        0.23438        0.00000
 BRILLOUIN|   281           0.00195       -0.23438        0.26562        0.00000
 BRILLOUIN|   282           0.00195       -0.23438        0.29688        0.00000
 BRILLOUIN|   283           0.00195       -0.23438        0.32812        0.00000
 BRILLOUIN|   284           0.00195       -0.23438        0.35938        0.00000
 BRILLOUIN|   285           0.00195       -0.23438        0.39062        0.00000
 BRILLOUIN|   286           0.00195       -0.23438        0.42188        0.00000
 BRILLOUIN|   287           0.00195       -0.23438        0.45312        0.00000
 BRILLOUIN|   288           0.00195       -0.23438        0.48438        0.00000
 BRILLOUIN|   289           0.00195       -0.20312       -0.48438        0.00000
 BRILLOUIN|   290           0.00195       -0.20312       -0.45312        0.00000
 BRILLOUIN|   291           0.00195       -0.20312       -0.42188        0.00000
 BRILLOUIN|   292           0.00195       -0.20312       -0.39062        0.00000
 BRILLOUIN|   293           0.00195       -0.20312       -0.35938        0.00000
 BRILLOUIN|   294           0.00195       -0.20312       -0.32812        0.00000
 BRILLOUIN|   295           0.00195       -0.20312       -0.29688        0.00000
 BRILLOUIN|   296           0.00195       -0.20312       -0.26562        0.00000
 BRILLOUIN|   297           0.00195       -0.20312       -0.23438        0.00000
 BRILLOUIN|   298           0.00195       -0.20312       -0.20312        0.00000
 BRILLOUIN|   299           0.00195       -0.20312       -0.17188        0.00000
 BRILLOUIN|   300           0.00195       -0.20312       -0.14062        0.00000
 BRILLOUIN|   301           0.00195       -0.20312       -0.10938        0.00000
 BRILLOUIN|   302           0.00195       -0.20312       -0.07812        0.00000
 BRILLOUIN|   303           0.00195       -0.20312       -0.04688        0.00000
 BRILLOUIN|   304           0.00195       -0.20312       -0.01562        0.00000
 BRILLOUIN|   305           0.00195       -0.20312        0.01562        0.00000
 BRILLOUIN|   306           0.00195       -0.20312        0.04688        0.00000
 BRILLOUIN|   307           0.00195       -0.20312        0.07812        0.00000
 BRILLOUIN|   308           0.00195       -0.20312        0.10938        0.00000
 BRILLOUIN|   309           0.00195       -0.20312        0.14062        0.00000
 BRILLOUIN|   310           0.00195       -0.20312        0.17188        0.00000
 BRILLOUIN|   311           0.00195       -0.20312        0.20312        0.00000
 BRILLOUIN|   312           0.00195       -0.20312        0.23438        0.00000
 BRILLOUIN|   313           0.00195       -0.20312        0.26562        0.00000
 BRILLOUIN|   314           0.00195       -0.20312        0.29688        0.00000
 BRILLOUIN|   315           0.00195       -0.20312        0.32812        0.00000
 BRILLOUIN|   316           0.00195       -0.20312        0.35938        0.00000
 BRILLOUIN|   317           0.00195       -0.20312        0.39062        0.00000
 BRILLOUIN|   318           0.00195       -0.20312        0.42188        0.00000
 BRILLOUIN|   319           0.00195       -0.20312        0.45312        0.00000
 BRILLOUIN|   320           0.00195       -0.20312        0.48438        0.00000
 BRILLOUIN|   321           0.00195       -0.17188       -0.48438        0.00000
 BRILLOUIN|   322           0.00195       -0.17188       -0.45312        0.00000
 BRILLOUIN|   323           0.00195       -0.17188       -0.42188        0.00000
 BRILLOUIN|   324           0.00195       -0.17188       -0.39062        0.00000
 BRILLOUIN|   325           0.00195       -0.17188       -0.35938        0.00000
 BRILLOUIN|   326           0.00195       -0.17188       -0.32812        0.00000
 BRILLOUIN|   327           0.00195       -0.17188       -0.29688        0.00000
 BRILLOUIN|   328           0.00195       -0.17188       -0.26562        0.00000
 BRILLOUIN|   329           0.00195       -0.17188       -0.23438        0.00000
 BRILLOUIN|   330           0.00195       -0.17188       -0.20312        0.00000
 BRILLOUIN|   331           0.00195       -0.17188       -0.17188        0.00000
 BRILLOUIN|   332           0.00195       -0.17188       -0.14062        0.00000
 BRILLOUIN|   333           0.00195       -0.17188       -0.10938        0.00000
 BRILLOUIN|   334           0.00195       -0.17188       -0.07812        0.00000
 BRILLOUIN|   335           0.00195       -0.17188       -0.04688        0.00000
 BRILLOUIN|   336           0.00195       -0.17188       -0.01562        0.00000
 BRILLOUIN|   337           0.00195       -0.17188        0.01562        0.00000
 BRILLOUIN|   338           0.00195       -0.17188        0.04688        0.00000
 BRILLOUIN|   339           0.00195       -0.17188        0.07812        0.00000
 BRILLOUIN|   340           0.00195       -0.17188        0.10938        0.00000
 BRILLOUIN|   341           0.00195       -0.17188        0.14062        0.00000
 BRILLOUIN|   342           0.00195       -0.17188        0.17188        0.00000
 BRILLOUIN|   343           0.00195       -0.17188        0.20312        0.00000
 BRILLOUIN|   344           0.00195       -0.17188        0.23438        0.00000
 BRILLOUIN|   345           0.00195       -0.17188        0.26562        0.00000
 BRILLOUIN|   346           0.00195       -0.17188        0.29688        0.00000
 BRILLOUIN|   347           0.00195       -0.17188        0.32812        0.00000
 BRILLOUIN|   348           0.00195       -0.17188        0.35938        0.00000
 BRILLOUIN|   349           0.00195       -0.17188        0.39062        0.00000
 BRILLOUIN|   350           0.00195       -0.17188        0.42188        0.00000
 BRILLOUIN|   351           0.00195       -0.17188        0.45312        0.00000
 BRILLOUIN|   352           0.00195       -0.17188        0.48438        0.00000
 BRILLOUIN|   353           0.00195       -0.14062       -0.48438        0.00000
 BRILLOUIN|   354           0.00195       -0.14062       -0.45312        0.00000
 BRILLOUIN|   355           0.00195       -0.14062       -0.42188        0.00000
 BRILLOUIN|   356           0.00195       -0.14062       -0.39062        0.00000
 BRILLOUIN|   357           0.00195       -0.14062       -0.35938        0.00000
 BRILLOUIN|   358           0.00195       -0.14062       -0.32812        0.00000
 BRILLOUIN|   359           0.00195       -0.14062       -0.29688        0.00000
 BRILLOUIN|   360           0.00195       -0.14062       -0.26562        0.00000
 BRILLOUIN|   361           0.00195       -0.14062       -0.23438        0.00000
 BRILLOUIN|   362           0.00195       -0.14062       -0.20312        0.00000
 BRILLOUIN|   363           0.00195       -0.14062       -0.17188        0.00000
 BRILLOUIN|   364           0.00195       -0.14062       -0.14062        0.00000
 BRILLOUIN|   365           0.00195       -0.14062       -0.10938        0.00000
 BRILLOUIN|   366           0.00195       -0.14062       -0.07812        0.00000
 BRILLOUIN|   367           0.00195       -0.14062       -0.04688        0.00000
 BRILLOUIN|   368           0.00195       -0.14062       -0.01562        0.00000
 BRILLOUIN|   369           0.00195       -0.14062        0.01562        0.00000
 BRILLOUIN|   370           0.00195       -0.14062        0.04688        0.00000
 BRILLOUIN|   371           0.00195       -0.14062        0.07812        0.00000
 BRILLOUIN|   372           0.00195       -0.14062        0.10938        0.00000
 BRILLOUIN|   373           0.00195       -0.14062        0.14062        0.00000
 BRILLOUIN|   374           0.00195       -0.14062        0.17188        0.00000
 BRILLOUIN|   375           0.00195       -0.14062        0.20312        0.00000
 BRILLOUIN|   376           0.00195       -0.14062        0.23438        0.00000
 BRILLOUIN|   377           0.00195       -0.14062        0.26562        0.00000
 BRILLOUIN|   378           0.00195       -0.14062        0.29688        0.00000
 BRILLOUIN|   379           0.00195       -0.14062        0.32812        0.00000
 BRILLOUIN|   380           0.00195       -0.14062        0.35938        0.00000
 BRILLOUIN|   381           0.00195       -0.14062        0.39062        0.00000
 BRILLOUIN|   382           0.00195       -0.14062        0.42188        0.00000
 BRILLOUIN|   383           0.00195       -0.14062        0.45312        0.00000
 BRILLOUIN|   384           0.00195       -0.14062        0.48438        0.00000
 BRILLOUIN|   385           0.00195       -0.10938       -0.48438        0.00000
 BRILLOUIN|   386           0.00195       -0.10938       -0.45312        0.00000
 BRILLOUIN|   387           0.00195       -0.10938       -0.42188        0.00000
 BRILLOUIN|   388           0.00195       -0.10938       -0.39062        0.00000
 BRILLOUIN|   389           0.00195       -0.10938       -0.35938        0.00000
 BRILLOUIN|   390           0.00195       -0.10938       -0.32812        0.00000
 BRILLOUIN|   391           0.00195       -0.10938       -0.29688        0.00000
 BRILLOUIN|   392           0.00195       -0.10938       -0.26562        0.00000
 BRILLOUIN|   393           0.00195       -0.10938       -0.23438        0.00000
 BRILLOUIN|   394           0.00195       -0.10938       -0.20312        0.00000
 BRILLOUIN|   395           0.00195       -0.10938       -0.17188        0.00000
 BRILLOUIN|   396           0.00195       -0.10938       -0.14062        0.00000
 BRILLOUIN|   397           0.00195       -0.10938       -0.10938        0.00000
 BRILLOUIN|   398           0.00195       -0.10938       -0.07812        0.00000
 BRILLOUIN|   399           0.00195       -0.10938       -0.04688        0.00000
 BRILLOUIN|   400           0.00195       -0.10938       -0.01562        0.00000
 BRILLOUIN|   401           0.00195       -0.10938        0.01562        0.00000
 BRILLOUIN|   402           0.00195       -0.10938        0.04688        0.00000
 BRILLOUIN|   403           0.00195       -0.10938        0.07812        0.00000
 BRILLOUIN|   404           0.00195       -0.10938        0.10938        0.00000
 BRILLOUIN|   405           0.00195       -0.10938        0.14062        0.00000
 BRILLOUIN|   406           0.00195       -0.10938        0.17188        0.00000
 BRILLOUIN|   407           0.00195       -0.10938        0.20312        0.00000
 BRILLOUIN|   408           0.00195       -0.10938        0.23438        0.00000
 BRILLOUIN|   409           0.00195       -0.10938        0.26562        0.00000
 BRILLOUIN|   410           0.00195       -0.10938        0.29688        0.00000
 BRILLOUIN|   411           0.00195       -0.10938        0.32812        0.00000
 BRILLOUIN|   412           0.00195       -0.10938        0.35938        0.00000
 BRILLOUIN|   413           0.00195       -0.10938        0.39062        0.00000
 BRILLOUIN|   414           0.00195       -0.10938        0.42188        0.00000
 BRILLOUIN|   415           0.00195       -0.10938        0.45312        0.00000
 BRILLOUIN|   416           0.00195       -0.10938        0.48438        0.00000
 BRILLOUIN|   417           0.00195       -0.07812       -0.48438        0.00000
 BRILLOUIN|   418           0.00195       -0.07812       -0.45312        0.00000
 BRILLOUIN|   419           0.00195       -0.07812       -0.42188        0.00000
 BRILLOUIN|   420           0.00195       -0.07812       -0.39062        0.00000
 BRILLOUIN|   421           0.00195       -0.07812       -0.35938        0.00000
 BRILLOUIN|   422           0.00195       -0.07812       -0.32812        0.00000
 BRILLOUIN|   423           0.00195       -0.07812       -0.29688        0.00000
 BRILLOUIN|   424           0.00195       -0.07812       -0.26562        0.00000
 BRILLOUIN|   425           0.00195       -0.07812       -0.23438        0.00000
 BRILLOUIN|   426           0.00195       -0.07812       -0.20312        0.00000
 BRILLOUIN|   427           0.00195       -0.07812       -0.17188        0.00000
 BRILLOUIN|   428           0.00195       -0.07812       -0.14062        0.00000
 BRILLOUIN|   429           0.00195       -0.07812       -0.10938        0.00000
 BRILLOUIN|   430           0.00195       -0.07812       -0.07812        0.00000
 BRILLOUIN|   431           0.00195       -0.07812       -0.04688        0.00000
 BRILLOUIN|   432           0.00195       -0.07812       -0.01562        0.00000
 BRILLOUIN|   433           0.00195       -0.07812        0.01562        0.00000
 BRILLOUIN|   434           0.00195       -0.07812        0.04688        0.00000
 BRILLOUIN|   435           0.00195       -0.07812        0.07812        0.00000
 BRILLOUIN|   436           0.00195       -0.07812        0.10938        0.00000
 BRILLOUIN|   437           0.00195       -0.07812        0.14062        0.00000
 BRILLOUIN|   438           0.00195       -0.07812        0.17188        0.00000
 BRILLOUIN|   439           0.00195       -0.07812        0.20312        0.00000
 BRILLOUIN|   440           0.00195       -0.07812        0.23438        0.00000
 BRILLOUIN|   441           0.00195       -0.07812        0.26562        0.00000
 BRILLOUIN|   442           0.00195       -0.07812        0.29688        0.00000
 BRILLOUIN|   443           0.00195       -0.07812        0.32812        0.00000
 BRILLOUIN|   444           0.00195       -0.07812        0.35938        0.00000
 BRILLOUIN|   445           0.00195       -0.07812        0.39062        0.00000
 BRILLOUIN|   446           0.00195       -0.07812        0.42188        0.00000
 BRILLOUIN|   447           0.00195       -0.07812        0.45312        0.00000
 BRILLOUIN|   448           0.00195       -0.07812        0.48438        0.00000
 BRILLOUIN|   449           0.00195       -0.04688       -0.48438        0.00000
 BRILLOUIN|   450           0.00195       -0.04688       -0.45312        0.00000
 BRILLOUIN|   451           0.00195       -0.04688       -0.42188        0.00000
 BRILLOUIN|   452           0.00195       -0.04688       -0.39062        0.00000
 BRILLOUIN|   453           0.00195       -0.04688       -0.35938        0.00000
 BRILLOUIN|   454           0.00195       -0.04688       -0.32812        0.00000
 BRILLOUIN|   455           0.00195       -0.04688       -0.29688        0.00000
 BRILLOUIN|   456           0.00195       -0.04688       -0.26562        0.00000
 BRILLOUIN|   457           0.00195       -0.04688       -0.23438        0.00000
 BRILLOUIN|   458           0.00195       -0.04688       -0.20312        0.00000
 BRILLOUIN|   459           0.00195       -0.04688       -0.17188        0.00000
 BRILLOUIN|   460           0.00195       -0.04688       -0.14062        0.00000
 BRILLOUIN|   461           0.00195       -0.04688       -0.10938        0.00000
 BRILLOUIN|   462           0.00195       -0.04688       -0.07812        0.00000
 BRILLOUIN|   463           0.00195       -0.04688       -0.04688        0.00000
 BRILLOUIN|   464           0.00195       -0.04688       -0.01562        0.00000
 BRILLOUIN|   465           0.00195       -0.04688        0.01562        0.00000
 BRILLOUIN|   466           0.00195       -0.04688        0.04688        0.00000
 BRILLOUIN|   467           0.00195       -0.04688        0.07812        0.00000
 BRILLOUIN|   468           0.00195       -0.04688        0.10938        0.00000
 BRILLOUIN|   469           0.00195       -0.04688        0.14062        0.00000
 BRILLOUIN|   470           0.00195       -0.04688        0.17188        0.00000
 BRILLOUIN|   471           0.00195       -0.04688        0.20312        0.00000
 BRILLOUIN|   472           0.00195       -0.04688        0.23438        0.00000
 BRILLOUIN|   473           0.00195       -0.04688        0.26562        0.00000
 BRILLOUIN|   474           0.00195       -0.04688        0.29688        0.00000
 BRILLOUIN|   475           0.00195       -0.04688        0.32812        0.00000
 BRILLOUIN|   476           0.00195       -0.04688        0.35938        0.00000
 BRILLOUIN|   477           0.00195       -0.04688        0.39062        0.00000
 BRILLOUIN|   478           0.00195       -0.04688        0.42188        0.00000
 BRILLOUIN|   479           0.00195       -0.04688        0.45312        0.00000
 BRILLOUIN|   480           0.00195       -0.04688        0.48438        0.00000
 BRILLOUIN|   481           0.00195       -0.01562       -0.48438        0.00000
 BRILLOUIN|   482           0.00195       -0.01562       -0.45312        0.00000
 BRILLOUIN|   483           0.00195       -0.01562       -0.42188        0.00000
 BRILLOUIN|   484           0.00195       -0.01562       -0.39062        0.00000
 BRILLOUIN|   485           0.00195       -0.01562       -0.35938        0.00000
 BRILLOUIN|   486           0.00195       -0.01562       -0.32812        0.00000
 BRILLOUIN|   487           0.00195       -0.01562       -0.29688        0.00000
 BRILLOUIN|   488           0.00195       -0.01562       -0.26562        0.00000
 BRILLOUIN|   489           0.00195       -0.01562       -0.23438        0.00000
 BRILLOUIN|   490           0.00195       -0.01562       -0.20312        0.00000
 BRILLOUIN|   491           0.00195       -0.01562       -0.17188        0.00000
 BRILLOUIN|   492           0.00195       -0.01562       -0.14062        0.00000
 BRILLOUIN|   493           0.00195       -0.01562       -0.10938        0.00000
 BRILLOUIN|   494           0.00195       -0.01562       -0.07812        0.00000
 BRILLOUIN|   495           0.00195       -0.01562       -0.04688        0.00000
 BRILLOUIN|   496           0.00195       -0.01562       -0.01562        0.00000
 BRILLOUIN|   497           0.00195       -0.01562        0.01562        0.00000
 BRILLOUIN|   498           0.00195       -0.01562        0.04688        0.00000
 BRILLOUIN|   499           0.00195       -0.01562        0.07812        0.00000
 BRILLOUIN|   500           0.00195       -0.01562        0.10938        0.00000
 BRILLOUIN|   501           0.00195       -0.01562        0.14062        0.00000
 BRILLOUIN|   502           0.00195       -0.01562        0.17188        0.00000
 BRILLOUIN|   503           0.00195       -0.01562        0.20312        0.00000
 BRILLOUIN|   504           0.00195       -0.01562        0.23438        0.00000
 BRILLOUIN|   505           0.00195       -0.01562        0.26562        0.00000
 BRILLOUIN|   506           0.00195       -0.01562        0.29688        0.00000
 BRILLOUIN|   507           0.00195       -0.01562        0.32812        0.00000
 BRILLOUIN|   508           0.00195       -0.01562        0.35938        0.00000
 BRILLOUIN|   509           0.00195       -0.01562        0.39062        0.00000
 BRILLOUIN|   510           0.00195       -0.01562        0.42188        0.00000
 BRILLOUIN|   511           0.00195       -0.01562        0.45312        0.00000
 BRILLOUIN|   512           0.00195       -0.01562        0.48438        0.00000
 *******************************************************************************

 *******************************************************************************
 *******************************************************************************
 **                                                                           **
 **     #####                         ##              ##                      **
 **    ##   ##            ##          ##              ##                      **
 **   ##     ##                       ##            ######                    **
 **   ##     ##  ##   ##  ##   #####  ##  ##   ####   ##    #####    #####    **
 **   ##     ##  ##   ##  ##  ##      ## ##   ##      ##   ##   ##  ##   ##   **
 **   ##  ## ##  ##   ##  ##  ##      ####     ###    ##   ######   ######    **
 **    ##  ###   ##   ##  ##  ##      ## ##      ##   ##   ##       ##        **
 **     #######   #####   ##   #####  ##  ##  ####    ##    #####   ##        **
 **           ##                                                    ##        **
 **                                                                           **
 **                                                ... make the atoms dance   **
 **                                                                           **
 **            Copyright (C) by CP2K developers group (2000-2025)             **
 **                      J. Chem. Phys. 152, 194103 (2020)                    **
 **                                                                           **
 *******************************************************************************

 DFT| Spin restricted Kohn-Sham (RKS) calculation                            RKS
 DFT| Multiplicity                                                             1
 DFT| Number of spin states                                                    1
 DFT| Charge                                                                   0
 DFT| Self-interaction correction (SIC)                                       NO
 DFT| Cutoffs: density                                              1.000000E-10
 DFT|          gradient                                             1.000000E-10
 DFT|          tau                                                  1.000000E-10
 DFT|          cutoff_smoothing_range                               0.000000E+00
 DFT| XC density smoothing                                                  NONE
 DFT| XC derivatives                                                          PW

 FUNCTIONAL| PBE:
 FUNCTIONAL| J.P.Perdew, K.Burke, M.Ernzerhof, Phys. Rev. Letter, vol. 77, n 18,
 FUNCTIONAL|  pp. 3865-3868, (1996) {spin unpolarized}                          


 QS| Method:                                                                GAPW
 QS| Density plane wave grid type                        NON-SPHERICAL FULLSPACE
 QS| Number of grid levels:                                                    4
 QS| Density cutoff [a.u.]:                                                250.0
 QS| Multi grid cutoff [a.u.]: 1) grid level                               250.0
 QS|                           2) grid level                                83.3
 QS|                           3) grid level                                27.8
 QS|                           4) grid level                                 9.3
 QS| Grid level progression factor:                                          3.0
 QS| Relative density cutoff [a.u.]:                                        50.0
 QS| Interaction thresholds: eps_pgf_orb:                                1.0E-12
 QS|                         eps_filter_matrix:                          0.0E+00
 QS|                         eps_core_charge:                            1.0E-14
 QS|                         eps_rho_gspace:                             1.0E-12
 QS|                         eps_rho_rspace:                             1.0E-12
 QS|                         eps_gvg_rspace:                             1.0E-06
 QS|                         eps_ppl:                                    1.0E-02
 QS|                         eps_ppnl:                                   1.0E-08
 QS| GAPW|      One center basis from orbital basis primitives
 QS| GAPW|                   eps_fit:                                    1.0E-04
 QS| GAPW|                   eps_iso:                                    1.0E-12
 QS| GAPW|                   eps_svd:                                    1.0E-08
 QS| GAPW|                   eps_cpc:                                    1.0E-12
 QS| GAPW|   atom-r-grid: quadrature:                                     GC_LOG
 QS| GAPW|      atom-s-grid:  max l :                                          4
 QS| GAPW|      max_l_rho0 :                                                   2
 QS| GAPW|      At least one kind is NOT PAW, i.e. it has only soft AO 
 QS| GAPW|      The NOT PAW atoms are treated fully GPW


 ATOMIC KIND INFORMATION

  1. Atomic kind: B                                     Number of atoms:       1

     Orbital Basis Set                                 aug-SZV-MOLOPT-GTH-tier-2

       Number of orbital shell sets:                                           1
       Number of orbital shells:                                               5
       Number of primitive Cartesian functions:                                5
       Number of Cartesian basis functions:                                   14
       Number of spherical basis functions:                                   13
       Norm type:                                                              2

       Normalised Cartesian orbitals:

                        Set   Shell   Orbital            Exponent    Coefficient

                          1       1    2s                0.070000       0.000000
                                                         0.101655      -0.057697
                                                         0.329920      -0.219689
                                                         0.915484       0.050494
                                                         3.053444       0.252403

                          1       2    3s                0.070000       0.096981
                                                         0.101655      -0.000080
                                                         0.329920       0.000294
                                                         0.915484       0.000161
                                                         3.053444       0.000000

                          1       3    3px               0.070000       0.000000
                                                         0.101655      -0.024010
                                                         0.329920      -0.182602
                                                         0.915484      -0.388731
                                                         3.053444      -0.570047
                          1       3    3py               0.070000       0.000000
                                                         0.101655      -0.024010
                                                         0.329920      -0.182602
                                                         0.915484      -0.388731
                                                         3.053444      -0.570047
                          1       3    3pz               0.070000       0.000000
                                                         0.101655      -0.024010
                                                         0.329920      -0.182602
                                                         0.915484      -0.388731
                                                         3.053444      -0.570047

                          1       4    4px               0.070000       0.057413
                                                         0.101655      -0.011874
                                                         0.329920       0.011088
                                                         0.915484       0.026429
                                                         3.053444       0.000000
                          1       4    4py               0.070000       0.057413
                                                         0.101655      -0.011874
                                                         0.329920       0.011088
                                                         0.915484       0.026429
                                                         3.053444       0.000000
                          1       4    4pz               0.070000       0.057413
                                                         0.101655      -0.011874
                                                         0.329920       0.011088
                                                         0.915484       0.026429
                                                         3.053444       0.000000

                          1       5    4dx2              0.070000       0.000071
                                                         0.101655       0.000150
                                                         0.329920       0.236125
                                                         0.915484      -0.007588
                                                         3.053444       0.000000
                          1       5    4dxy              0.070000       0.000123
                                                         0.101655       0.000260
                                                         0.329920       0.408980
                                                         0.915484      -0.013142
                                                         3.053444       0.000000
                          1       5    4dxz              0.070000       0.000123
                                                         0.101655       0.000260
                                                         0.329920       0.408980
                                                         0.915484      -0.013142
                                                         3.053444       0.000000
                          1       5    4dy2              0.070000       0.000071
                                                         0.101655       0.000150
                                                         0.329920       0.236125
                                                         0.915484      -0.007588
                                                         3.053444       0.000000
                          1       5    4dyz              0.070000       0.000123
                                                         0.101655       0.000260
                                                         0.329920       0.408980
                                                         0.915484      -0.013142
                                                         3.053444       0.000000
                          1       5    4dz2              0.070000       0.000071
                                                         0.101655       0.000150
                                                         0.329920       0.236125
                                                         0.915484      -0.007588
                                                         3.053444       0.000000

     RI Auxiliary Basis Set             RI_aug-SZV-MOLOPT-GTH-tier-2_N_RI_014_s_

       Number of orbital shell sets:                                           6
       Number of orbital shells:                                               6
       Number of primitive Cartesian functions:                                6
       Number of Cartesian basis functions:                                   15
       Number of spherical basis functions:                                   14
       Norm type:                                                              2

       Normalised Cartesian orbitals:

                        Set   Shell   Orbital            Exponent    Coefficient

                          1       1    1s                0.176183       0.193813

                          2       1    4px               0.190207       0.179049
                          2       1    4py               0.190207       0.179049
                          2       1    4pz               0.190207       0.179049

                          3       1    2s                0.494536       0.420299

                          4       1    6dx2              0.503217       0.494859
                          4       1    6dxy              0.503217       0.857120
                          4       1    6dxz              0.503217       0.857120
                          4       1    6dy2              0.503217       0.494859
                          4       1    6dyz              0.503217       0.857120
                          4       1    6dz2              0.503217       0.494859

                          5       1    5px               0.738822       0.976371
                          5       1    5py               0.738822       0.976371
                          5       1    5pz               0.738822       0.976371

                          6       1    3s                3.130453       1.677318

       Atomic covalent radius [Angstrom]:                                  0.820

       Atomic van der Waals radius [Angstrom]:                             1.920

     GTH Potential information for                                    GTH-PBE-q3

       Description:                       Goedecker-Teter-Hutter pseudopotential
                                           Goedecker et al., PRB 54, 1703 (1996)
                                          Hartwigsen et al., PRB 58, 3641 (1998)
                                                      Krack, TCA 114, 145 (2005)

       Gaussian exponent of the core charge distribution:               2.848129
       Electronic configuration (s p d ...):                               2   1

       Parameters of the local part of the GTH pseudopotential:

                          rloc        C1          C2          C3          C4
                        0.418991   -5.859462    0.903756

       Parameters of the non-local part of the GTH (SOC) pseudopotential:

                   l      r(l)      h(i,j,l)
                                    k(i,j,l)
                   0    0.371320    6.297280
                   1    0.364563    0.000000
                                    0.000855

  2. Atomic kind: N                                     Number of atoms:       1

     Orbital Basis Set                                 aug-SZV-MOLOPT-GTH-tier-2

       Number of orbital shell sets:                                           1
       Number of orbital shells:                                               5
       Number of primitive Cartesian functions:                                6
       Number of Cartesian basis functions:                                   14
       Number of spherical basis functions:                                   13
       Norm type:                                                              2

       Normalised Cartesian orbitals:

                        Set   Shell   Orbital            Exponent    Coefficient

                          1       1    2s                0.070000       0.000000
                                                         0.112012      -0.019197
                                                         0.333802      -0.182244
                                                         0.888575      -0.289383
                                                         2.542637       0.139177
                                                         7.341988       0.360561

                          1       2    3s                0.070000       0.092556
                                                         0.112012      -0.004523
                                                         0.333802       0.017208
                                                         0.888575       0.059493
                                                         2.542637       0.000000
                                                         7.341988       0.000000

                          1       3    3px               0.070000       0.000000
                                                         0.112012      -0.013986
                                                         0.333802      -0.144894
                                                         0.888575      -0.501079
                                                         2.542637      -0.973969
                                                         7.341988      -1.188719
                          1       3    3py               0.070000       0.000000
                                                         0.112012      -0.013986
                                                         0.333802      -0.144894
                                                         0.888575      -0.501079
                                                         2.542637      -0.973969
                                                         7.341988      -1.188719
                          1       3    3pz               0.070000       0.000000
                                                         0.112012      -0.013986
                                                         0.333802      -0.144894
                                                         0.888575      -0.501079
                                                         2.542637      -0.973969
                                                         7.341988      -1.188719

                          1       4    4px               0.070000       0.019777
                                                         0.112012       0.010521
                                                         0.333802       0.223757
                                                         0.888575       0.038703
                                                         2.542637       0.000000
                                                         7.341988       0.000000
                          1       4    4py               0.070000       0.019777
                                                         0.112012       0.010521
                                                         0.333802       0.223757
                                                         0.888575       0.038703
                                                         2.542637       0.000000
                                                         7.341988       0.000000
                          1       4    4pz               0.070000       0.019777
                                                         0.112012       0.010521
                                                         0.333802       0.223757
                                                         0.888575       0.038703
                                                         2.542637       0.000000
                                                         7.341988       0.000000

                          1       5    4dx2              0.070000       0.012523
                                                         0.112012      -0.007680
                                                         0.333802       0.106561
                                                         0.888575       0.393255
                                                         2.542637       0.000000
                                                         7.341988       0.000000
                          1       5    4dxy              0.070000       0.021691
                                                         0.112012      -0.013303
                                                         0.333802       0.184569
                                                         0.888575       0.681137
                                                         2.542637       0.000000
                                                         7.341988       0.000000
                          1       5    4dxz              0.070000       0.021691
                                                         0.112012      -0.013303
                                                         0.333802       0.184569
                                                         0.888575       0.681137
                                                         2.542637       0.000000
                                                         7.341988       0.000000
                          1       5    4dy2              0.070000       0.012523
                                                         0.112012      -0.007680
                                                         0.333802       0.106561
                                                         0.888575       0.393255
                                                         2.542637       0.000000
                                                         7.341988       0.000000
                          1       5    4dyz              0.070000       0.021691
                                                         0.112012      -0.013303
                                                         0.333802       0.184569
                                                         0.888575       0.681137
                                                         2.542637       0.000000
                                                         7.341988       0.000000
                          1       5    4dz2              0.070000       0.012523
                                                         0.112012      -0.007680
                                                         0.333802       0.106561
                                                         0.888575       0.393255
                                                         2.542637       0.000000
                                                         7.341988       0.000000

     RI Auxiliary Basis Set             RI_aug-SZV-MOLOPT-GTH-tier-2_N_RI_033_s_

       Number of orbital shell sets:                                          13
       Number of orbital shells:                                              13
       Number of primitive Cartesian functions:                               13
       Number of Cartesian basis functions:                                   38
       Number of spherical basis functions:                                   33
       Norm type:                                                              2

       Normalised Cartesian orbitals:

                        Set   Shell   Orbital            Exponent    Coefficient

                          1       1    8px               0.128755       0.109937
                          1       1    8py               0.128755       0.109937
                          1       1    8pz               0.128755       0.109937

                          2       1    1s                0.177993       0.195305

                          3       1    2s                0.352789       0.326247

                          4       1   11dx2              0.604085       0.681289
                          4       1   11dxy              0.604085       1.180027
                          4       1   11dxz              0.604085       1.180027
                          4       1   11dy2              0.604085       0.681289
                          4       1   11dyz              0.604085       1.180027
                          4       1   11dz2              0.604085       0.681289

                          5       1    9px               0.668095       0.860970
                          5       1    9py               0.668095       0.860970
                          5       1    9pz               0.668095       0.860970

                          6       1    3s                0.722621       0.558590

                          7       1   13fx3              1.003298       1.483105
                          7       1   13fx2y             1.003298       3.316324
                          7       1   13fx2z             1.003298       3.316324
                          7       1   13fxy2             1.003298       3.316324
                          7       1   13fxyz             1.003298       5.744042
                          7       1   13fxz2             1.003298       3.316324
                          7       1   13fy3              1.003298       1.483105
                          7       1   13fy2z             1.003298       3.316324
                          7       1   13fyz2             1.003298       3.316324
                          7       1   13fz3              1.003298       1.483105

                          8       1    4s                1.475569       0.954179

                          9       1   10px               1.864193       3.104944
                          9       1   10py               1.864193       3.104944
                          9       1   10pz               1.864193       3.104944

                         10       1    5s                2.970298       1.612539

                         11       1   12dx2              3.000284      11.257544
                         11       1   12dxy              3.000284      19.498638
                         11       1   12dxz              3.000284      19.498638
                         11       1   12dy2              3.000284      11.257544
                         11       1   12dyz              3.000284      19.498638
                         11       1   12dz2              3.000284      11.257544

                         12       1    6s                6.032716       2.743435

                         13       1    7s               12.241787       4.664378

       Atomic covalent radius [Angstrom]:                                  0.750

       Atomic van der Waals radius [Angstrom]:                             1.550

     The atoms of this atomic kind are PAW atoms (GAPW):
       Hard Gaussian function radius:                                      1.512
       Rho0 radius:                                                        1.512
       Maximum GTO radius used for PAW projector construction:            24.566

     GAPW Soft Basis Set                          aug-SZV-MOLOPT-GTH-tier-2_soft

       Number of orbital shell sets:                                           1
       Number of orbital shells:                                               5
       Number of primitive Cartesian functions:                                5
       Number of Cartesian basis functions:                                   14
       Number of spherical basis functions:                                   13
       Norm type:                                                              2

[...]
 https://doi.org/10.1103/PhysRevB.58.3641

 S. Goedecker, M. Teter, J. Hutter.
 Phys. Rev. B 54, 1703-1710 (1996).
 Separable dual-space Gaussian pseudopotentials.
 https://doi.org/10.1103/PhysRevB.54.1703

 J. P. Perdew, K. Burke, M. Ernzerhof.
 Phys. Rev. Lett. 77, 3865-3868 (1996).
 Generalized gradient approximation made simple.
 https://doi.org/10.1103/PhysRevLett.77.3865


 -------------------------------------------------------------------------------
 -                                                                             -
 -                                T I M I N G                                  -
 -                                                                             -
 -------------------------------------------------------------------------------
 SUBROUTINE                       CALLS  ASD         SELF TIME        TOTAL TIME
                                MAXIMUM       AVERAGE  MAXIMUM  AVERAGE  MAXIMUM
 CP2K                                 1  1.0     0.04     0.06 10301.10 10301.26
 qs_energies                          1  2.0     0.00     0.00 10060.21 10060.37
 qs_energies_properties               1  3.0     0.00     0.00  9818.92  9819.08
 post_scf_bandstructure               1  4.0     0.00     0.00  9818.92  9819.08
 gw                                   1  5.0     0.00     0.00  9798.91  9799.06
 gw_calc_small_cell_full_kp           1  6.0     0.00     0.00  9758.40  9758.56
 dbt_total                      *******  9.6    26.15    30.48  5863.63  7495.70
 dbt_contract                   7801405 10.4    52.35    59.81  5510.16  7101.62
 dbt_tas_multiply               9962808 12.9     7.74     9.01  5147.36  6719.20
 dbt_tas_total                  9962808 13.9   288.36   337.95  5142.47  6713.80
 compute_chi                          1  7.0     0.05     0.60  5501.51  5501.96
 dbt_tas_estimate_result_nze    4981404 13.4   134.31   155.93  2602.29  3565.30
 compute_Sigma_c                      1  7.0     0.00     0.00  3153.59  3154.00
 mp_sync                        ******* 12.7  1847.24  2911.51  1847.24  2911.51
 G_times_3c                       23990  8.0     8.04     9.39  2179.42  2829.81
 contract_to_Sigma                  167  8.0    23.08    26.47  1641.90  1901.21
 contract_M_occ_vir_to_chi           79  8.0    37.52    43.55  1014.22  1766.95
 dbt_tas_dbm                    9962808 14.9     7.10     7.87   989.48  1340.00
 dbm_multiply                   9962808 16.9   974.20  1322.49   974.20  1322.49
 dbm_reserve_blocks             ******* 16.7   839.12  1298.77   839.12  1298.77
 contract_W                          87  8.0     8.88     9.82  1174.66  1269.03
 reshape_mm_small               9962808 14.9   538.19   607.58  1067.22  1235.39
 contract_to_Sigma_3c_x_G       1781526  9.0     2.12     2.40  1044.84  1138.14
 convert_to_new_pgrid           ******* 14.9    39.86    45.95   674.64  1039.35
 dbm_copy                       ******* 15.9   634.78   994.25   634.78   994.25
 dbt_tas_reserve_blocks_index   ******* 15.9    19.61    22.11   558.84   917.47
 G_occ_vir                          121  8.0     0.26     0.30   898.41   904.11
 mp_alltoall_i22                 970621 10.0   767.33   887.56   767.33   887.56
 dbcsr_complete_redistribute     515052  9.6    10.50    22.01   736.68   825.75
 contract_to_Sigma_contract       24082  9.0     7.60     8.67   565.97   759.18
 fm_to_local_tensor              146072  9.0     1.60     2.74   754.12   755.00
 copy_fm_to_dbcsr                226259  9.3     0.47     0.49   568.28   653.70
 dbt_tas_reserve_blocks_templat ******* 14.2    16.17    18.85   336.58   633.56
 global_matrix_to_local_matrix   146072 10.0     2.07     3.43   174.28   631.26
 dbt_tas_create_split           ******* 16.0    15.22    17.30   523.98   610.66
 dbt_tas_create_split_rows_or_c ******* 17.0    55.86    63.01   508.77   593.37
 dbt_tas_replicate              9962808 14.9    92.70    98.18   477.92   578.54
 send_data                       146072 11.0     0.10     0.11    98.14   568.55
 communicate_buffer              146072 12.0     0.86    18.20    98.04   568.44
 reshape_mm_compatible          9962808 14.9    71.69    84.57   486.34   565.27
 dbt_tas_mm_1N                  2375516 15.5     1.20     1.42   427.89   564.61
 mp_waitall_1                   1648178 11.0   102.89   520.50   102.89   520.50
 dbt_tas_reshape                ******* 15.5    44.21    47.99   400.57   498.51
 dbt_tas_mm_2                   3687774 16.0     2.40     3.53   289.98   494.56
 compute_Sigma_x                      1  7.0     0.00     0.00   450.03   450.39
 dbt_copy                       ******* 10.9    39.62    51.94   382.60   445.88
 compute_W_real_space                 1  7.0     1.05     1.18   423.50   423.67
 dbt_tas_distribution_new       ******* 15.8   187.18   210.46   367.97   415.84
 change_split                   ******* 15.4    23.40    28.24   326.05   389.90
 copy_dbcsr_to_fm                288793  8.0     1.52     1.60   351.26   388.77
 parallel_gemm_cfm               273920  9.0     0.18     0.20   362.13   369.24
 parallel_gemm_cfm_cosma         273920 10.0   361.95   369.08   361.95   369.08
 dbm_add                        9962808 14.9   210.88   341.28   210.88   341.28
 dbt_tas_reshape_buffer_obtain  ******* 16.5    44.32    47.33   245.83   337.03
 dbt_reshape                    7922772 11.8   175.40   244.14   247.23   318.69
 compute_Minv_and_Vsqrt               1  8.0     0.01     0.01   317.12   317.23
 build_2c_coulomb_matrix_kp_sma       2  9.0     1.59     4.92   314.99   315.10
 dbt_destroy                    ******* 10.6   239.73   300.25   243.46   303.91
 mp_cart_create                 ******* 16.7   239.23   267.81   264.47   298.31
 dbt_tas_mm_3T                  4413822 16.1     2.36     2.90   262.93   285.50
 local_dbt_to_global_fm              91  8.0     0.15     0.16   262.33   262.34
 dbcsr_desymmetrize_deep         455569  8.3     5.05     5.65   215.20   252.69
 get_t_3c_int                   5605107  9.3    11.23    12.01   196.48   249.00
 scf_env_do_scf                       1  3.0     0.00     0.00   241.07   241.07
 scf_env_do_scf_inner_loop           78  4.0     0.01     0.02   241.07   241.07
 bs_env_release                       1  2.0     0.37     0.46   187.83   239.14
 compute_QP_energies                  1  7.0     0.24     0.34   229.77   230.27
 trafo_to_k_and_nn                71492  8.0     0.22     0.27   229.42   229.87
 qs_scf_new_mos_kp                   78  5.0     0.00     0.00   224.28   224.32
 do_general_diag_kp                  78  6.0     0.37     0.39   224.27   224.32
 dbt_remap                       840742 11.0    73.84    81.22   196.96   215.55
 mp_comm_dup                    ******* 18.5   159.89   190.01   174.06   208.01
 build_2c_coulomb_matrix_kp_sma  655360 10.0   178.21   182.10   178.21   182.10
 local_dbt_to_global_mat          87451  9.0     0.24     0.26    61.15   179.59
 local_matrix_to_global_matrix    87451 10.0     0.17     0.18    45.54   164.63
 comm_data                        87451 11.0     0.21     3.01    34.45   148.08
 mp_waitall_2                    174902 12.0    31.36   143.25    31.36   143.25
 mp_comm_split_direct           ******* 18.0   107.87   126.43   115.11   134.59
 dbt_tas_merge                  3687774 15.0    27.80    40.41    62.58   130.34
 mp_comm_free                   ******* 15.7   103.01   121.85   103.01   121.85
 mp_max_i                       ******* 11.4    54.40   120.66    54.40   120.66
 dbt_permute_index              ******* 12.2    78.06    93.99    88.21   105.83
 mp_cart_sub                     577665 10.0   101.24   101.33   101.24   101.33
 mp_sum_dm                       655595 10.0    78.53    87.74    78.53    87.74
 reshape_mm_template            1681484 15.5    52.23    61.11    76.31    86.00
 dbt_align_index                ******* 11.4    12.92    14.68    73.13    85.82
 dbt_tas_create_new             ******* 15.3    72.59    84.34    72.59    84.34
 dbt_tas_reshape_buffer_fill    ******* 16.5    69.46    76.38    69.46    76.38
 dbt_tas_mp_comm                5746245 13.1     7.34     8.25    57.87    67.02
 fm_MWM_R_t_to_local_tensor_W_R      30  8.0     0.02     0.02    66.54    66.56
 mp_sum_i                       8587778 16.0    62.13    63.02    62.13    63.02
 send_sizes_1                    146072 11.0     0.09     0.10    60.20    61.06
 dbt_distribution_new_expert    1973638 12.3     9.65    10.30    54.84    58.76
 dbt_tas_copy                   4069708 12.3    22.90    29.98    46.29    56.81
 dbt_reserve_blocks_index_array 8805953 12.8     4.83     5.88    46.88    56.42
 fm_add_ikp_to_rs                123904  9.0    35.60    36.66    53.95    55.28
 dbt_reserve_blocks_index       9030235 13.7     6.43     7.75    45.23    54.26
 fm_to_local_array                  934  8.1     5.50     8.67    51.21    51.34
 mp_comm_size                   ******* -3.2    41.40    50.87    41.40    50.87
 mp_cart_get                    ******* -8.2    41.08    49.32    41.08    49.32
 add_R                          *******  9.3    29.28    32.42    44.68    49.19
 cp_fm_start_copy_general        239616  7.3     1.00     1.82    47.59    48.35
 mp_sum_dm3                        1073  9.0    46.41    46.48    46.41    46.48
 add_V_L                         327680 10.0     0.72    46.48     0.72    46.48
 destroy_t_2d                        62  8.0    11.61    20.52    29.12    42.99
 kpoint_density_transform            78  7.0     0.12     0.12    41.56    41.59
 create_and_init_bs_env_for_gw        1  6.0     0.00     0.00    40.50    40.52
 mp_allgather_i                  479232  8.3    38.41    40.09    38.41    40.09
 dbt_create_3c_R1_R2                 62  8.0     8.87     9.75    35.65    36.82
 get_V_tr_R                          34  9.0     0.07     0.08    35.46    35.49
 mp_alltoall_d11v               2911863 10.4    10.22    34.81    10.22    34.81
 fm_trafo_rs_to_ikp               71492  9.0    20.88    21.86    32.47    34.57
 mult_W_with_Minv                    30  8.0     0.10     0.11    32.89    32.89
 mp_comm_rank                   ******* -3.2    27.44    32.30    27.44    32.30
 dbt_create_new                  986819 11.8     6.19     6.73    29.31    31.46
 is_cell_in_index_to_cell       *******  9.8    26.58    29.30    26.58    29.30
 dbt_copy_nocomm                1055077 11.0    11.92    19.24    17.97    28.95
 dbt_create_template            9948539  9.0    27.84    28.87    27.84    28.87
 dbt_communicate_buffer         7922772 12.8    24.33    28.64    24.33    28.64
 compute_3c_integrals                 1  7.0     0.16     0.17    27.30    27.30
 add_ikp_to_rs                  ******* 10.0    25.71    26.66    25.71    26.66
 build_3c_integrals                   1  8.0    19.52    20.26    25.78    26.49
 mp_isend_dv                    ******* 11.4     3.37    24.66     3.37    24.66
 dbm_filter                     ******* 14.8    20.45    24.33    20.45    24.33
 add_rs_to_ikp                  *******  9.9    21.13    23.33    21.13    23.33
 mp_alltoall_i                  ******* 15.4    21.52    23.22    21.52    23.22
 destroy_t_1d                        98  8.0     0.19     0.24    17.34    18.68
 mp_alltoall_i11v               2000725 10.3    14.30    18.67    14.30    18.67
 mp_sum_dv                        78763  8.9    13.68    17.95    13.68    17.95
 dbt_tas_reshape_communicate_bu ******* 16.5     6.06     6.93    15.27    17.84
 dbt_create_2c_R                     98  8.0    14.58    17.27    14.89    17.56
 rskp_transform                   83388  7.1     0.23    16.42     0.23    16.42
 dbt_create_matrix               146072 10.0     0.82     0.89    14.84    16.15
 dbcsr_finalize                 1935324 10.9     3.17     3.93    13.46    15.68
 dbt_pgrid_create_expert        1973641 13.3     2.10     2.30    14.19    15.39
 get_Minv_Vtr_Minv_R                  1  8.0     0.00     0.01    14.93    14.95
 dbt_tas_communicate_buffer     ******* 17.2    12.52    14.68    12.52    14.68
 dbt_tas_reshape_get_coord      ******* 16.5    12.79    14.62    12.79    14.62
 mp_sum_l                       ******* 15.0    12.38    14.44    12.38    14.44
 get_data                        146072 11.0     4.39    13.54     4.60    13.80
 create_and_init_bs_env               1  5.0     0.00     0.00    13.37    13.37
 compute_cfm_mo_coeff_kp_and_ei       1  6.0     0.00     0.00    13.37    13.37
 dbm_scale                      ******* 14.6    10.70    13.14    10.70    13.14
 qs_ks_update_qs_env                 78  5.0     0.00     0.00     8.32    11.86
 trafo_rs_to_ikp                   5368  8.1     1.68     1.82    11.22    11.49
 qs_ks_build_kohn_sham_matrix        81  7.0     0.02     0.02     7.69    11.37
 dbt_nd_mp_comm                  986814 11.8     1.33     1.45    10.10    11.13
 dbt_tas_reshape_alltoall       ******* 16.5     5.40     6.10     9.98    10.99
 rebuild_ks_matrix                   78  6.0     0.00     0.00     7.40    10.95
 dbt_reserve_blocks_template    1055077 12.0     1.09     1.81     6.05     9.99
 add_ikp_to_all_rs                 4924  8.0     1.49     1.58     8.86     9.22
 cp_cfm_geeig_canon                1172  7.0     0.00     0.00     8.47     8.50
 transform_dmat                   39936  8.0     0.10     8.27     0.10     8.27
 dbcsr_filter_anytype            671937 10.9     1.32     1.48     5.35     8.19
 cp_cfm_heevd                      2500  8.0     0.00     0.00     8.07     8.10
 cp_cfm_heevd_base                 2500  9.0     8.07     8.10     8.07     8.10
 mp_bcast_i                     ******* 18.0     6.62     7.81     6.62     7.81
 dbcsr_merge_all                 734467 11.7     5.03     5.58     6.75     7.81
 set_blocks                       87451 11.0     1.48     4.24     3.21     7.34
 rsmat_to_kp                       3516  7.3     0.03     0.03     7.08     7.13
 mp_bcast_iv                     958804  8.3     6.42     7.06     6.42     7.06
 send_sizes_2                    146072 11.0     0.09     0.11     6.49     7.03
 dos_pdos_ldos                        1  5.0     0.00     0.00     6.65     6.67
 mp_dims_create                 ******* 14.3     5.71     6.67     5.71     6.67
 mp_isend_im2                   ******* 12.8     0.14     6.58     0.14     6.58
 transfer_pw2rs                     406 10.6     0.00     0.00     6.27     6.35
 dbt_tas_replicate_communicate_ 6760444 15.9     3.53     3.86     5.88     6.33
 qs_rho_update_rho_low               79  5.0     0.00     0.00     6.32     6.33
 compute_proj_mo_on_kind           1172  6.0     0.01     0.01     6.29     6.29
 sum_up_and_integrate                81  8.0     0.00     0.00     1.42     6.28
 integrate_v_rspace                  81  9.0     0.00     0.01     1.42     6.28
 transfer_pw2rs_250                 163 11.0     0.10     0.12     5.84     5.93
 trafo_V_xc_R_to_kp                   1  7.0     0.00     0.00     5.47     5.52
 dbt_tas_replicate_alltoall     6760444 15.9     3.05     3.44     4.86     5.41
 dbt_distribution_destroy       1973638 12.3     3.69     4.04     4.75     5.18
 integrate_vhg0_rspace               81  8.0     0.00     0.01     5.09     5.16
 grid_integrate_task_list            81 10.0     0.06     4.92     0.06     4.92
 dbcsr_create_new               1697732  9.8     3.36     3.97     4.21     4.82
 calculate_rho_elec                  79  6.0     0.00     0.01     4.63     4.63
 mp_cart_rank                   ******* 15.9     4.12     4.63     4.12     4.63
 transfer_rs2pw                     399  8.4     0.00     0.00     4.47     4.54
 density_rs2pw                       79  7.0     0.00     0.00     4.42     4.49
 transfer_rs2pw_250                 162 10.0     0.11     0.13     4.33     4.41
 mp_sendrecv_dv                  101745 10.4     4.32     4.39     4.32     4.39
 comm_size                        87451 11.0     0.09     0.10     4.09     4.34
 dbt_buffer_get_index           ******* 16.8     3.40     4.14     3.40     4.14
 grid_collocate_task_list            79  7.0     0.20     4.14     0.20     4.14
 dbt_tas_merge_communicate_buff 3687774 16.0     1.52     2.21     2.48     3.81
 update_ks_atom                      81  8.0     0.04     3.72     0.09     3.77
 dbt_tas_merge_alltoall         3687774 16.0     1.42     2.06     2.57     3.71
 dbcsr_iterator_start           4296527 10.8     2.72     2.93     3.45     3.67
 setup_parallelization_Delta_R        1  7.0     0.00     0.00     3.62     3.62
 compute_n_tensor_ops_Delta_R         1  8.0     0.81     1.47     3.61     3.61
 fill_buffer                      87451 11.0     2.35     3.40     2.48     3.54
 abc_contract_xsmm               318004  9.0     3.31     3.49     3.31     3.49
 copy_fm_to_dbcsr_bc             226259 10.3     0.96     1.04     3.19     3.43
 mp_sum_iv                           24  6.1     1.63     3.23     1.63     3.23
 power                            10204  8.0     0.37     0.41     3.07     3.19
 dbt_copy_matrix_to_tensor       146072 10.0     0.53     0.57     2.67     3.00
 hybrid_alltoall_any             455569  9.3     1.20     1.25     2.33     2.96
 diag_complex                     10204  9.0     2.71     2.82     2.71     2.82
 dbcsr_destroy                  1560196  9.5     1.28     1.56     2.36     2.69
 dbcsr_iterator_stop            4296527 10.8     1.90     2.04     2.39     2.60
 dbcsr_work_create              1190036 10.2     1.55     1.74     2.28     2.60
 dbcsr_data_release             ******* 11.4     2.18     2.60     2.18     2.60
 reserve_blocks                  146072 11.0     0.36     0.38     1.70     2.44
 dbt_reserve_blocks_matrix_to_t  146072 11.0     0.36     0.38     1.94     2.24
 heuristic_RI_regularization          1  7.0     0.00     0.00     2.17     2.17
 alloc_block_3c                       1  9.0     0.25     0.26     2.10     2.14
 dbcsr_data_new                 8819821 10.9     1.82     2.09     1.82     2.09
 dbcsr_work_destroy_all         1190036 11.1     1.33     1.51     1.81     2.04
 build_2c_integrals                  34 10.0     0.04     1.01     0.10     1.93
 mp_bcast_im                     479232  8.3     1.30     1.80     1.30     1.80
 write_kpoints_restart               78  5.0     0.00     0.05     1.68     1.70
 calculate_rho_atom_coeff            79  6.0     0.02     1.51     1.69     1.69
 create_qs_kind_set                   1  2.0     0.00     0.00     1.60     1.60
 read_qs_kind                         2  3.0     0.77     0.87     1.60     1.60
 dbcsr_reserve_blocks            589612 12.2     0.81     1.20     1.05     1.51
 get_coord                        87451 11.0     0.72     0.77     1.15     1.40
 potential_pw2rs                     81 10.0     0.00     0.00     1.36     1.36
 quick_finalize                  455569 10.3     0.66     0.83     1.05     1.36
 copy_dbcsr_to_fm_bc             288793  9.0     0.64     0.73     1.14     1.23
 mp_sum_d                         50623  8.9     1.19     1.22     1.19     1.22
 dbcsr_set                      1608957 10.4     0.76     0.83     1.12     1.22
 dbcsr_copy                      217723  9.6     0.32     0.52     0.89     1.20
 dbcsr_reserve_all_blocks        313710 11.5     0.24     0.25     0.80     1.12
 -------------------------------------------------------------------------------

 The number of warnings for this run is : 1
 
 -------------------------------------------------------------------------------
  **** **** ******  **  PROGRAM ENDED AT                 2025-09-17 23:33:45.820
 ***** ** ***  *** **   PROGRAM RAN ON                                 n2lcn0103
 **    ****   ******    PROGRAM RAN BY                                  metdyn02
 ***** **    ** ** **   PROGRAM PROCESS ID                               2171375
  **** **  *******  **  PROGRAM STOPPED IN /scratch/hpc-prf-metdyn/metdyn02_Remi
                                           /14_hBN/aug-SZV-MOLOPT
