 DBCSR| CPU Multiplication driver                                           XSMM (U)
 DBCSR| Multrec recursion limit                                              512 (U)
 DBCSR| Multiplication stack size                                           1000 (D)
 DBCSR| Maximum elements for images                                    UNLIMITED (U)
 DBCSR| Multiplicative factor virtual images                                   1 (U)
 DBCSR| Use multiplication densification                                       T (D)
 DBCSR| Multiplication size stacks                                             3 (U)
 DBCSR| Use memory pool for CPU allocation                                     F (U)
 DBCSR| Number of 3D layers                                               SINGLE (U)
 DBCSR| Use MPI memory allocation                                              F (U)
 DBCSR| Use RMA algorithm                                                      F (U)
 DBCSR| Use Communication thread                                               T (U)
 DBCSR| Communication thread load                                             75 (D)
 DBCSR| MPI: My process id                                                     0
 DBCSR| MPI: Number of processes                                             256
 DBCSR| OMP: Current number of threads                                         4
 DBCSR| OMP: Max number of threads                                             4
 DBCSR| Split modifier for TAS multiplication algorithm                  1.0E+00 (U)


  **** **** ******  **  PROGRAM STARTED AT               2025-09-20 15:35:31.172
 ***** ** ***  *** **   PROGRAM STARTED ON                n2lcn0119.ab2021.local
 **    ****   ******    PROGRAM STARTED BY                              metdyn02
 ***** **    ** ** **   PROGRAM PROCESS ID                               3503880
  **** **  *******  **  PROGRAM STARTED IN /scratch/hpc-prf-metdyn/metdyn02_Remi
                                           /14_hBN/aug-SZV-MOLOPT

 CP2K| version string:                 CP2K version 2025.2 (Development Version)
 CP2K| source code revision number:                                  git:8d80afc
 CP2K| cp2kflags: omp libint fftw3 libxc libgrpp elpa parallel scalapack mpi_f08
 CP2K|             cosma xsmm plumed2 spglib libvori libbqb libvdwxc hdf5
 CP2K| is freely available from                            https://www.cp2k.org/
 CP2K| Program compiled at                         Mon Sep  8 11:02:08 CEST 2025
 CP2K| Program compiled on                                              n2login1
 CP2K| Program compiled for                                                local
 CP2K| Data directory path    /opt/software/pc2/EB-SW/software/CP2K/2025.2-foss-
 CP2K| Input file name                                                    GW.inp

 GLOBAL| Force Environment number                                              1
 GLOBAL| Basis set file name                                        BASIS_MOLOPT
 GLOBAL| Potential file name                                  GTH_SOC_POTENTIALS
 GLOBAL| MM Potential file name                                     MM_POTENTIAL
 GLOBAL| Coordinate file name                                      __STD_INPUT__
 GLOBAL| Method name                                                        CP2K
 GLOBAL| Project name                                                        hBN
 GLOBAL| Run type                                                         ENERGY
 GLOBAL| FFT library                                                       FFTW3
 GLOBAL| Diagonalization library                                            ELPA
 GLOBAL| Cholesky decomposition library                                ScaLAPACK
 GLOBAL| DGEMM library                                                      BLAS
 GLOBAL| Minimum number of eigenvectors for ELPA usage                        16
 GLOBAL| Orthonormality check for eigenvectors                          DISABLED
 GLOBAL| Matrix multiplication library                                     COSMA
 GLOBAL| All-to-all communication in single precision                          F
 GLOBAL| FFTs using library dependent lengths                                  F
 GLOBAL| Grid backend                                                       AUTO
 GLOBAL| Global print level                                               MEDIUM
 GLOBAL| MPI I/O enabled                                                       T
 GLOBAL| Total number of message passing processes                           256
 GLOBAL| Number of threads for this process                                    4
 GLOBAL| This output is from process                                           0
 GLOBAL| OpenMP stack size per thread (OMP_STACKSIZE)                    default
 GLOBAL| CPU model name                          AMD EPYC 7763 64-Core Processor
 GLOBAL| CPUID                                                              1002

 MEMORY| system memory details [Kb]
 MEMORY|                        rank 0           min           max       average
 MEMORY| MemTotal           1056620476    1056620468    1056620528    1056620497
 MEMORY| MemFree            1032007460    1019412964    1032007460    1026985720
 MEMORY| Buffers                138104         31336        433268        166061
 MEMORY| Cached               11554396      11554396      21553096      15922872
 MEMORY| Slab                  1943492       1943492       4932176       2832714
 MEMORY| SReclaimable           541832        541832       2414160       1030731
 MEMORY| MemLikelyFree      1044241792    1043224716    1044771784    1044105385


 *** Fundamental physical constants (SI units) ***

 *** Literature: B. J. Mohr and B. N. Taylor,
 ***             CODATA recommended values of the fundamental physical
 ***             constants: 2006, Web Version 5.1
 ***             http://physics.nist.gov/constants

 Speed of light in vacuum [m/s]                             2.99792458000000E+08
 Magnetic constant or permeability of vacuum [N/A**2]       1.25663706143592E-06
 Electric constant or permittivity of vacuum [F/m]          8.85418781762039E-12
 Planck constant (h) [J*s]                                  6.62606896000000E-34
 Planck constant (h-bar) [J*s]                              1.05457162825177E-34
 Elementary charge [C]                                      1.60217648700000E-19
 Electron mass [kg]                                         9.10938215000000E-31
 Electron g factor [ ]                                     -2.00231930436220E+00
 Proton mass [kg]                                           1.67262163700000E-27
 Fine-structure constant                                    7.29735253760000E-03
 Rydberg constant [1/m]                                     1.09737315685270E+07
 Avogadro constant [1/mol]                                  6.02214179000000E+23
 Boltzmann constant [J/K]                                   1.38065040000000E-23
 Atomic mass unit [kg]                                      1.66053878200000E-27
 Bohr radius [m]                                            5.29177208590000E-11

 *** Conversion factors ***

 [u] -> [a.u.]                                              1.82288848426455E+03
 [Angstrom] -> [Bohr] = [a.u.]                              1.88972613288564E+00
 [a.u.] = [Bohr] -> [Angstrom]                              5.29177208590000E-01
 [a.u.] -> [s]                                              2.41888432650478E-17
 [a.u.] -> [fs]                                             2.41888432650478E-02
 [a.u.] -> [J]                                              4.35974393937059E-18
 [a.u.] -> [N]                                              8.23872205491840E-08
 [a.u.] -> [K]                                              3.15774647902944E+05
 [a.u.] -> [kJ/mol]                                         2.62549961709828E+03
 [a.u.] -> [kcal/mol]                                       6.27509468713739E+02
 [a.u.] -> [Pa]                                             2.94210107994716E+13
 [a.u.] -> [bar]                                            2.94210107994716E+08
 [a.u.] -> [atm]                                            2.90362800883016E+08
 [a.u.] -> [eV]                                             2.72113838565563E+01
 [a.u.] -> [Hz]                                             6.57968392072181E+15
 [a.u.] -> [1/cm] (wave numbers)                            2.19474631370540E+05
 [a.u./Bohr**2] -> [1/cm]                                   5.14048714338585E+03
 

 CELL_TOP| Volume [angstrom^3]:                                        81.840700
 CELL_TOP| Vector a [angstrom     2.510     0.000     0.000   |a| =     2.510000
 CELL_TOP| Vector b [angstrom    -1.255     2.174     0.000   |b| =     2.510000
 CELL_TOP| Vector c [angstrom     0.000     0.000    15.000   |c| =    15.000000
 CELL_TOP| Angle (b,c), alpha [degree]:                                90.000000
 CELL_TOP| Angle (a,c), beta  [degree]:                                90.000000
 CELL_TOP| Angle (a,b), gamma [degree]:                               120.000000
 CELL_TOP| Numerically orthorhombic:                                          NO
 CELL_TOP| Periodicity                                                        XY

 GENERATE|  Preliminary Number of Bonds generated:                             0
 GENERATE|  Achieved consistency in connectivity generation.

 CELL| Volume [angstrom^3]:                                            81.840700
 CELL| Vector a [angstrom]:       2.510     0.000     0.000   |a| =     2.510000
 CELL| Vector b [angstrom]:      -1.255     2.174     0.000   |b| =     2.510000
 CELL| Vector c [angstrom]:       0.000     0.000    15.000   |c| =    15.000000
 CELL| Angle (b,c), alpha [degree]:                                    90.000000
 CELL| Angle (a,c), beta  [degree]:                                    90.000000
 CELL| Angle (a,b), gamma [degree]:                                   120.000000
 CELL| Numerically orthorhombic:                                              NO
 CELL| Periodicity                                                            XY

 CELL_REF| Volume [angstrom^3]:                                        81.840700
 CELL_REF| Vector a [angstrom     2.510     0.000     0.000   |a| =     2.510000
 CELL_REF| Vector b [angstrom    -1.255     2.174     0.000   |b| =     2.510000
 CELL_REF| Vector c [angstrom     0.000     0.000    15.000   |c| =    15.000000
 CELL_REF| Angle (b,c), alpha [degree]:                                90.000000
 CELL_REF| Angle (a,c), beta  [degree]:                                90.000000
 CELL_REF| Angle (a,b), gamma [degree]:                               120.000000
 CELL_REF| Numerically orthorhombic:                                          NO
 CELL_REF| Periodicity                                                        XY

 *******************************************************************************
                                    Kpoints
 *******************************************************************************
 BRILLOUIN| K-point scheme                                        Monkhorst-Pack
 BRILLOUIN| K-Point grid                                            64   64    1
 BRILLOUIN| Accuracy in Symmetry determination                      0.100000E-05
 BRILLOUIN| K-Point point group symmetrization                               OFF
 BRILLOUIN| Wavefunction type                                            COMPLEX
 BRILLOUIN| List of Kpoints [2 Pi/Bohr]                                     2048
 BRILLOUIN| Number           Weight            X              Y              Z
 BRILLOUIN|     1           0.00049       -0.49219       -0.49219        0.00000
 BRILLOUIN|     2           0.00049       -0.49219       -0.47656        0.00000
 BRILLOUIN|     3           0.00049       -0.49219       -0.46094        0.00000
 BRILLOUIN|     4           0.00049       -0.49219       -0.44531        0.00000
 BRILLOUIN|     5           0.00049       -0.49219       -0.42969        0.00000
 BRILLOUIN|     6           0.00049       -0.49219       -0.41406        0.00000
 BRILLOUIN|     7           0.00049       -0.49219       -0.39844        0.00000
 BRILLOUIN|     8           0.00049       -0.49219       -0.38281        0.00000
 BRILLOUIN|     9           0.00049       -0.49219       -0.36719        0.00000
 BRILLOUIN|    10           0.00049       -0.49219       -0.35156        0.00000
 BRILLOUIN|    11           0.00049       -0.49219       -0.33594        0.00000
 BRILLOUIN|    12           0.00049       -0.49219       -0.32031        0.00000
 BRILLOUIN|    13           0.00049       -0.49219       -0.30469        0.00000
 BRILLOUIN|    14           0.00049       -0.49219       -0.28906        0.00000
 BRILLOUIN|    15           0.00049       -0.49219       -0.27344        0.00000
 BRILLOUIN|    16           0.00049       -0.49219       -0.25781        0.00000
 BRILLOUIN|    17           0.00049       -0.49219       -0.24219        0.00000
 BRILLOUIN|    18           0.00049       -0.49219       -0.22656        0.00000
 BRILLOUIN|    19           0.00049       -0.49219       -0.21094        0.00000
 BRILLOUIN|    20           0.00049       -0.49219       -0.19531        0.00000
 BRILLOUIN|    21           0.00049       -0.49219       -0.17969        0.00000
 BRILLOUIN|    22           0.00049       -0.49219       -0.16406        0.00000
 BRILLOUIN|    23           0.00049       -0.49219       -0.14844        0.00000
 BRILLOUIN|    24           0.00049       -0.49219       -0.13281        0.00000
 BRILLOUIN|    25           0.00049       -0.49219       -0.11719        0.00000
 BRILLOUIN|    26           0.00049       -0.49219       -0.10156        0.00000
 BRILLOUIN|    27           0.00049       -0.49219       -0.08594        0.00000
 BRILLOUIN|    28           0.00049       -0.49219       -0.07031        0.00000
 BRILLOUIN|    29           0.00049       -0.49219       -0.05469        0.00000
 BRILLOUIN|    30           0.00049       -0.49219       -0.03906        0.00000
 BRILLOUIN|    31           0.00049       -0.49219       -0.02344        0.00000
 BRILLOUIN|    32           0.00049       -0.49219       -0.00781        0.00000
 BRILLOUIN|    33           0.00049       -0.49219        0.00781        0.00000
 BRILLOUIN|    34           0.00049       -0.49219        0.02344        0.00000
 BRILLOUIN|    35           0.00049       -0.49219        0.03906        0.00000
 BRILLOUIN|    36           0.00049       -0.49219        0.05469        0.00000
 BRILLOUIN|    37           0.00049       -0.49219        0.07031        0.00000
 BRILLOUIN|    38           0.00049       -0.49219        0.08594        0.00000
 BRILLOUIN|    39           0.00049       -0.49219        0.10156        0.00000
 BRILLOUIN|    40           0.00049       -0.49219        0.11719        0.00000
 BRILLOUIN|    41           0.00049       -0.49219        0.13281        0.00000
 BRILLOUIN|    42           0.00049       -0.49219        0.14844        0.00000
 BRILLOUIN|    43           0.00049       -0.49219        0.16406        0.00000
 BRILLOUIN|    44           0.00049       -0.49219        0.17969        0.00000
 BRILLOUIN|    45           0.00049       -0.49219        0.19531        0.00000
 BRILLOUIN|    46           0.00049       -0.49219        0.21094        0.00000
 BRILLOUIN|    47           0.00049       -0.49219        0.22656        0.00000
 BRILLOUIN|    48           0.00049       -0.49219        0.24219        0.00000
 BRILLOUIN|    49           0.00049       -0.49219        0.25781        0.00000
 BRILLOUIN|    50           0.00049       -0.49219        0.27344        0.00000
 BRILLOUIN|    51           0.00049       -0.49219        0.28906        0.00000
 BRILLOUIN|    52           0.00049       -0.49219        0.30469        0.00000
 BRILLOUIN|    53           0.00049       -0.49219        0.32031        0.00000
 BRILLOUIN|    54           0.00049       -0.49219        0.33594        0.00000
 BRILLOUIN|    55           0.00049       -0.49219        0.35156        0.00000
 BRILLOUIN|    56           0.00049       -0.49219        0.36719        0.00000
 BRILLOUIN|    57           0.00049       -0.49219        0.38281        0.00000
 BRILLOUIN|    58           0.00049       -0.49219        0.39844        0.00000
 BRILLOUIN|    59           0.00049       -0.49219        0.41406        0.00000
 BRILLOUIN|    60           0.00049       -0.49219        0.42969        0.00000
 BRILLOUIN|    61           0.00049       -0.49219        0.44531        0.00000
 BRILLOUIN|    62           0.00049       -0.49219        0.46094        0.00000
 BRILLOUIN|    63           0.00049       -0.49219        0.47656        0.00000
 BRILLOUIN|    64           0.00049       -0.49219        0.49219        0.00000
 BRILLOUIN|    65           0.00049       -0.47656       -0.49219        0.00000
 BRILLOUIN|    66           0.00049       -0.47656       -0.47656        0.00000
 BRILLOUIN|    67           0.00049       -0.47656       -0.46094        0.00000
 BRILLOUIN|    68           0.00049       -0.47656       -0.44531        0.00000
 BRILLOUIN|    69           0.00049       -0.47656       -0.42969        0.00000
 BRILLOUIN|    70           0.00049       -0.47656       -0.41406        0.00000
 BRILLOUIN|    71           0.00049       -0.47656       -0.39844        0.00000
 BRILLOUIN|    72           0.00049       -0.47656       -0.38281        0.00000
 BRILLOUIN|    73           0.00049       -0.47656       -0.36719        0.00000
 BRILLOUIN|    74           0.00049       -0.47656       -0.35156        0.00000
 BRILLOUIN|    75           0.00049       -0.47656       -0.33594        0.00000
 BRILLOUIN|    76           0.00049       -0.47656       -0.32031        0.00000
 BRILLOUIN|    77           0.00049       -0.47656       -0.30469        0.00000
 BRILLOUIN|    78           0.00049       -0.47656       -0.28906        0.00000
 BRILLOUIN|    79           0.00049       -0.47656       -0.27344        0.00000
 BRILLOUIN|    80           0.00049       -0.47656       -0.25781        0.00000
 BRILLOUIN|    81           0.00049       -0.47656       -0.24219        0.00000
 BRILLOUIN|    82           0.00049       -0.47656       -0.22656        0.00000
 BRILLOUIN|    83           0.00049       -0.47656       -0.21094        0.00000
 BRILLOUIN|    84           0.00049       -0.47656       -0.19531        0.00000
 BRILLOUIN|    85           0.00049       -0.47656       -0.17969        0.00000
 BRILLOUIN|    86           0.00049       -0.47656       -0.16406        0.00000
 BRILLOUIN|    87           0.00049       -0.47656       -0.14844        0.00000
 BRILLOUIN|    88           0.00049       -0.47656       -0.13281        0.00000
 BRILLOUIN|    89           0.00049       -0.47656       -0.11719        0.00000
 BRILLOUIN|    90           0.00049       -0.47656       -0.10156        0.00000
 BRILLOUIN|    91           0.00049       -0.47656       -0.08594        0.00000
 BRILLOUIN|    92           0.00049       -0.47656       -0.07031        0.00000
 BRILLOUIN|    93           0.00049       -0.47656       -0.05469        0.00000
 BRILLOUIN|    94           0.00049       -0.47656       -0.03906        0.00000
 BRILLOUIN|    95           0.00049       -0.47656       -0.02344        0.00000
 BRILLOUIN|    96           0.00049       -0.47656       -0.00781        0.00000
 BRILLOUIN|    97           0.00049       -0.47656        0.00781        0.00000
 BRILLOUIN|    98           0.00049       -0.47656        0.02344        0.00000
 BRILLOUIN|    99           0.00049       -0.47656        0.03906        0.00000
 BRILLOUIN|   100           0.00049       -0.47656        0.05469        0.00000
 BRILLOUIN|   101           0.00049       -0.47656        0.07031        0.00000
 BRILLOUIN|   102           0.00049       -0.47656        0.08594        0.00000
 BRILLOUIN|   103           0.00049       -0.47656        0.10156        0.00000
 BRILLOUIN|   104           0.00049       -0.47656        0.11719        0.00000
 BRILLOUIN|   105           0.00049       -0.47656        0.13281        0.00000
 BRILLOUIN|   106           0.00049       -0.47656        0.14844        0.00000
 BRILLOUIN|   107           0.00049       -0.47656        0.16406        0.00000
 BRILLOUIN|   108           0.00049       -0.47656        0.17969        0.00000
 BRILLOUIN|   109           0.00049       -0.47656        0.19531        0.00000
 BRILLOUIN|   110           0.00049       -0.47656        0.21094        0.00000
 BRILLOUIN|   111           0.00049       -0.47656        0.22656        0.00000
 BRILLOUIN|   112           0.00049       -0.47656        0.24219        0.00000
 BRILLOUIN|   113           0.00049       -0.47656        0.25781        0.00000
 BRILLOUIN|   114           0.00049       -0.47656        0.27344        0.00000
 BRILLOUIN|   115           0.00049       -0.47656        0.28906        0.00000
 BRILLOUIN|   116           0.00049       -0.47656        0.30469        0.00000
 BRILLOUIN|   117           0.00049       -0.47656        0.32031        0.00000
 BRILLOUIN|   118           0.00049       -0.47656        0.33594        0.00000
 BRILLOUIN|   119           0.00049       -0.47656        0.35156        0.00000
 BRILLOUIN|   120           0.00049       -0.47656        0.36719        0.00000
 BRILLOUIN|   121           0.00049       -0.47656        0.38281        0.00000
 BRILLOUIN|   122           0.00049       -0.47656        0.39844        0.00000
 BRILLOUIN|   123           0.00049       -0.47656        0.41406        0.00000
 BRILLOUIN|   124           0.00049       -0.47656        0.42969        0.00000
 BRILLOUIN|   125           0.00049       -0.47656        0.44531        0.00000
 BRILLOUIN|   126           0.00049       -0.47656        0.46094        0.00000
 BRILLOUIN|   127           0.00049       -0.47656        0.47656        0.00000
 BRILLOUIN|   128           0.00049       -0.47656        0.49219        0.00000
 BRILLOUIN|   129           0.00049       -0.46094       -0.49219        0.00000
 BRILLOUIN|   130           0.00049       -0.46094       -0.47656        0.00000
 BRILLOUIN|   131           0.00049       -0.46094       -0.46094        0.00000
 BRILLOUIN|   132           0.00049       -0.46094       -0.44531        0.00000
 BRILLOUIN|   133           0.00049       -0.46094       -0.42969        0.00000
 BRILLOUIN|   134           0.00049       -0.46094       -0.41406        0.00000
 BRILLOUIN|   135           0.00049       -0.46094       -0.39844        0.00000
 BRILLOUIN|   136           0.00049       -0.46094       -0.38281        0.00000
 BRILLOUIN|   137           0.00049       -0.46094       -0.36719        0.00000
 BRILLOUIN|   138           0.00049       -0.46094       -0.35156        0.00000
 BRILLOUIN|   139           0.00049       -0.46094       -0.33594        0.00000
 BRILLOUIN|   140           0.00049       -0.46094       -0.32031        0.00000
 BRILLOUIN|   141           0.00049       -0.46094       -0.30469        0.00000
 BRILLOUIN|   142           0.00049       -0.46094       -0.28906        0.00000
 BRILLOUIN|   143           0.00049       -0.46094       -0.27344        0.00000
 BRILLOUIN|   144           0.00049       -0.46094       -0.25781        0.00000
 BRILLOUIN|   145           0.00049       -0.46094       -0.24219        0.00000
 BRILLOUIN|   146           0.00049       -0.46094       -0.22656        0.00000
 BRILLOUIN|   147           0.00049       -0.46094       -0.21094        0.00000
 BRILLOUIN|   148           0.00049       -0.46094       -0.19531        0.00000
 BRILLOUIN|   149           0.00049       -0.46094       -0.17969        0.00000
 BRILLOUIN|   150           0.00049       -0.46094       -0.16406        0.00000
 BRILLOUIN|   151           0.00049       -0.46094       -0.14844        0.00000
 BRILLOUIN|   152           0.00049       -0.46094       -0.13281        0.00000
 BRILLOUIN|   153           0.00049       -0.46094       -0.11719        0.00000
 BRILLOUIN|   154           0.00049       -0.46094       -0.10156        0.00000
 BRILLOUIN|   155           0.00049       -0.46094       -0.08594        0.00000
 BRILLOUIN|   156           0.00049       -0.46094       -0.07031        0.00000
 BRILLOUIN|   157           0.00049       -0.46094       -0.05469        0.00000
 BRILLOUIN|   158           0.00049       -0.46094       -0.03906        0.00000
 BRILLOUIN|   159           0.00049       -0.46094       -0.02344        0.00000
 BRILLOUIN|   160           0.00049       -0.46094       -0.00781        0.00000
 BRILLOUIN|   161           0.00049       -0.46094        0.00781        0.00000
 BRILLOUIN|   162           0.00049       -0.46094        0.02344        0.00000
 BRILLOUIN|   163           0.00049       -0.46094        0.03906        0.00000
 BRILLOUIN|   164           0.00049       -0.46094        0.05469        0.00000
 BRILLOUIN|   165           0.00049       -0.46094        0.07031        0.00000
 BRILLOUIN|   166           0.00049       -0.46094        0.08594        0.00000
 BRILLOUIN|   167           0.00049       -0.46094        0.10156        0.00000
 BRILLOUIN|   168           0.00049       -0.46094        0.11719        0.00000
 BRILLOUIN|   169           0.00049       -0.46094        0.13281        0.00000
 BRILLOUIN|   170           0.00049       -0.46094        0.14844        0.00000
 BRILLOUIN|   171           0.00049       -0.46094        0.16406        0.00000
 BRILLOUIN|   172           0.00049       -0.46094        0.17969        0.00000
 BRILLOUIN|   173           0.00049       -0.46094        0.19531        0.00000
 BRILLOUIN|   174           0.00049       -0.46094        0.21094        0.00000
 BRILLOUIN|   175           0.00049       -0.46094        0.22656        0.00000
 BRILLOUIN|   176           0.00049       -0.46094        0.24219        0.00000
 BRILLOUIN|   177           0.00049       -0.46094        0.25781        0.00000
 BRILLOUIN|   178           0.00049       -0.46094        0.27344        0.00000
 BRILLOUIN|   179           0.00049       -0.46094        0.28906        0.00000
 BRILLOUIN|   180           0.00049       -0.46094        0.30469        0.00000
 BRILLOUIN|   181           0.00049       -0.46094        0.32031        0.00000
 BRILLOUIN|   182           0.00049       -0.46094        0.33594        0.00000
 BRILLOUIN|   183           0.00049       -0.46094        0.35156        0.00000
 BRILLOUIN|   184           0.00049       -0.46094        0.36719        0.00000
 BRILLOUIN|   185           0.00049       -0.46094        0.38281        0.00000
 BRILLOUIN|   186           0.00049       -0.46094        0.39844        0.00000
 BRILLOUIN|   187           0.00049       -0.46094        0.41406        0.00000
 BRILLOUIN|   188           0.00049       -0.46094        0.42969        0.00000
 BRILLOUIN|   189           0.00049       -0.46094        0.44531        0.00000
 BRILLOUIN|   190           0.00049       -0.46094        0.46094        0.00000
 BRILLOUIN|   191           0.00049       -0.46094        0.47656        0.00000
 BRILLOUIN|   192           0.00049       -0.46094        0.49219        0.00000
 BRILLOUIN|   193           0.00049       -0.44531       -0.49219        0.00000
 BRILLOUIN|   194           0.00049       -0.44531       -0.47656        0.00000
 BRILLOUIN|   195           0.00049       -0.44531       -0.46094        0.00000
 BRILLOUIN|   196           0.00049       -0.44531       -0.44531        0.00000
 BRILLOUIN|   197           0.00049       -0.44531       -0.42969        0.00000
 BRILLOUIN|   198           0.00049       -0.44531       -0.41406        0.00000
 BRILLOUIN|   199           0.00049       -0.44531       -0.39844        0.00000
 BRILLOUIN|   200           0.00049       -0.44531       -0.38281        0.00000
 BRILLOUIN|   201           0.00049       -0.44531       -0.36719        0.00000
 BRILLOUIN|   202           0.00049       -0.44531       -0.35156        0.00000
 BRILLOUIN|   203           0.00049       -0.44531       -0.33594        0.00000
 BRILLOUIN|   204           0.00049       -0.44531       -0.32031        0.00000
 BRILLOUIN|   205           0.00049       -0.44531       -0.30469        0.00000
 BRILLOUIN|   206           0.00049       -0.44531       -0.28906        0.00000
 BRILLOUIN|   207           0.00049       -0.44531       -0.27344        0.00000
 BRILLOUIN|   208           0.00049       -0.44531       -0.25781        0.00000
 BRILLOUIN|   209           0.00049       -0.44531       -0.24219        0.00000
 BRILLOUIN|   210           0.00049       -0.44531       -0.22656        0.00000
 BRILLOUIN|   211           0.00049       -0.44531       -0.21094        0.00000
 BRILLOUIN|   212           0.00049       -0.44531       -0.19531        0.00000
 BRILLOUIN|   213           0.00049       -0.44531       -0.17969        0.00000
 BRILLOUIN|   214           0.00049       -0.44531       -0.16406        0.00000
 BRILLOUIN|   215           0.00049       -0.44531       -0.14844        0.00000
 BRILLOUIN|   216           0.00049       -0.44531       -0.13281        0.00000
 BRILLOUIN|   217           0.00049       -0.44531       -0.11719        0.00000
 BRILLOUIN|   218           0.00049       -0.44531       -0.10156        0.00000
 BRILLOUIN|   219           0.00049       -0.44531       -0.08594        0.00000
 BRILLOUIN|   220           0.00049       -0.44531       -0.07031        0.00000
 BRILLOUIN|   221           0.00049       -0.44531       -0.05469        0.00000
 BRILLOUIN|   222           0.00049       -0.44531       -0.03906        0.00000
 BRILLOUIN|   223           0.00049       -0.44531       -0.02344        0.00000
 BRILLOUIN|   224           0.00049       -0.44531       -0.00781        0.00000
 BRILLOUIN|   225           0.00049       -0.44531        0.00781        0.00000
 BRILLOUIN|   226           0.00049       -0.44531        0.02344        0.00000
 BRILLOUIN|   227           0.00049       -0.44531        0.03906        0.00000
 BRILLOUIN|   228           0.00049       -0.44531        0.05469        0.00000
 BRILLOUIN|   229           0.00049       -0.44531        0.07031        0.00000
 BRILLOUIN|   230           0.00049       -0.44531        0.08594        0.00000
 BRILLOUIN|   231           0.00049       -0.44531        0.10156        0.00000
 BRILLOUIN|   232           0.00049       -0.44531        0.11719        0.00000
 BRILLOUIN|   233           0.00049       -0.44531        0.13281        0.00000
 BRILLOUIN|   234           0.00049       -0.44531        0.14844        0.00000
 BRILLOUIN|   235           0.00049       -0.44531        0.16406        0.00000
 BRILLOUIN|   236           0.00049       -0.44531        0.17969        0.00000
 BRILLOUIN|   237           0.00049       -0.44531        0.19531        0.00000
 BRILLOUIN|   238           0.00049       -0.44531        0.21094        0.00000
 BRILLOUIN|   239           0.00049       -0.44531        0.22656        0.00000
 BRILLOUIN|   240           0.00049       -0.44531        0.24219        0.00000
 BRILLOUIN|   241           0.00049       -0.44531        0.25781        0.00000
 BRILLOUIN|   242           0.00049       -0.44531        0.27344        0.00000
 BRILLOUIN|   243           0.00049       -0.44531        0.28906        0.00000
 BRILLOUIN|   244           0.00049       -0.44531        0.30469        0.00000
 BRILLOUIN|   245           0.00049       -0.44531        0.32031        0.00000
 BRILLOUIN|   246           0.00049       -0.44531        0.33594        0.00000
 BRILLOUIN|   247           0.00049       -0.44531        0.35156        0.00000
 BRILLOUIN|   248           0.00049       -0.44531        0.36719        0.00000
 BRILLOUIN|   249           0.00049       -0.44531        0.38281        0.00000
 BRILLOUIN|   250           0.00049       -0.44531        0.39844        0.00000
 BRILLOUIN|   251           0.00049       -0.44531        0.41406        0.00000
 BRILLOUIN|   252           0.00049       -0.44531        0.42969        0.00000
 BRILLOUIN|   253           0.00049       -0.44531        0.44531        0.00000
 BRILLOUIN|   254           0.00049       -0.44531        0.46094        0.00000
 BRILLOUIN|   255           0.00049       -0.44531        0.47656        0.00000
 BRILLOUIN|   256           0.00049       -0.44531        0.49219        0.00000
 BRILLOUIN|   257           0.00049       -0.42969       -0.49219        0.00000
 BRILLOUIN|   258           0.00049       -0.42969       -0.47656        0.00000
 BRILLOUIN|   259           0.00049       -0.42969       -0.46094        0.00000
 BRILLOUIN|   260           0.00049       -0.42969       -0.44531        0.00000
 BRILLOUIN|   261           0.00049       -0.42969       -0.42969        0.00000
 BRILLOUIN|   262           0.00049       -0.42969       -0.41406        0.00000
 BRILLOUIN|   263           0.00049       -0.42969       -0.39844        0.00000
 BRILLOUIN|   264           0.00049       -0.42969       -0.38281        0.00000
 BRILLOUIN|   265           0.00049       -0.42969       -0.36719        0.00000
 BRILLOUIN|   266           0.00049       -0.42969       -0.35156        0.00000
 BRILLOUIN|   267           0.00049       -0.42969       -0.33594        0.00000
 BRILLOUIN|   268           0.00049       -0.42969       -0.32031        0.00000
 BRILLOUIN|   269           0.00049       -0.42969       -0.30469        0.00000
 BRILLOUIN|   270           0.00049       -0.42969       -0.28906        0.00000
 BRILLOUIN|   271           0.00049       -0.42969       -0.27344        0.00000
 BRILLOUIN|   272           0.00049       -0.42969       -0.25781        0.00000
 BRILLOUIN|   273           0.00049       -0.42969       -0.24219        0.00000
 BRILLOUIN|   274           0.00049       -0.42969       -0.22656        0.00000
 BRILLOUIN|   275           0.00049       -0.42969       -0.21094        0.00000
 BRILLOUIN|   276           0.00049       -0.42969       -0.19531        0.00000
 BRILLOUIN|   277           0.00049       -0.42969       -0.17969        0.00000
 BRILLOUIN|   278           0.00049       -0.42969       -0.16406        0.00000
 BRILLOUIN|   279           0.00049       -0.42969       -0.14844        0.00000
 BRILLOUIN|   280           0.00049       -0.42969       -0.13281        0.00000
 BRILLOUIN|   281           0.00049       -0.42969       -0.11719        0.00000
 BRILLOUIN|   282           0.00049       -0.42969       -0.10156        0.00000
 BRILLOUIN|   283           0.00049       -0.42969       -0.08594        0.00000
 BRILLOUIN|   284           0.00049       -0.42969       -0.07031        0.00000
 BRILLOUIN|   285           0.00049       -0.42969       -0.05469        0.00000
 BRILLOUIN|   286           0.00049       -0.42969       -0.03906        0.00000
 BRILLOUIN|   287           0.00049       -0.42969       -0.02344        0.00000
 BRILLOUIN|   288           0.00049       -0.42969       -0.00781        0.00000
 BRILLOUIN|   289           0.00049       -0.42969        0.00781        0.00000
 BRILLOUIN|   290           0.00049       -0.42969        0.02344        0.00000
 BRILLOUIN|   291           0.00049       -0.42969        0.03906        0.00000
 BRILLOUIN|   292           0.00049       -0.42969        0.05469        0.00000
 BRILLOUIN|   293           0.00049       -0.42969        0.07031        0.00000
 BRILLOUIN|   294           0.00049       -0.42969        0.08594        0.00000
 BRILLOUIN|   295           0.00049       -0.42969        0.10156        0.00000
 BRILLOUIN|   296           0.00049       -0.42969        0.11719        0.00000
 BRILLOUIN|   297           0.00049       -0.42969        0.13281        0.00000
 BRILLOUIN|   298           0.00049       -0.42969        0.14844        0.00000
 BRILLOUIN|   299           0.00049       -0.42969        0.16406        0.00000
 BRILLOUIN|   300           0.00049       -0.42969        0.17969        0.00000
 BRILLOUIN|   301           0.00049       -0.42969        0.19531        0.00000
 BRILLOUIN|   302           0.00049       -0.42969        0.21094        0.00000
 BRILLOUIN|   303           0.00049       -0.42969        0.22656        0.00000
 BRILLOUIN|   304           0.00049       -0.42969        0.24219        0.00000
 BRILLOUIN|   305           0.00049       -0.42969        0.25781        0.00000
 BRILLOUIN|   306           0.00049       -0.42969        0.27344        0.00000
 BRILLOUIN|   307           0.00049       -0.42969        0.28906        0.00000
 BRILLOUIN|   308           0.00049       -0.42969        0.30469        0.00000
 BRILLOUIN|   309           0.00049       -0.42969        0.32031        0.00000
 BRILLOUIN|   310           0.00049       -0.42969        0.33594        0.00000
 BRILLOUIN|   311           0.00049       -0.42969        0.35156        0.00000
 BRILLOUIN|   312           0.00049       -0.42969        0.36719        0.00000
 BRILLOUIN|   313           0.00049       -0.42969        0.38281        0.00000
 BRILLOUIN|   314           0.00049       -0.42969        0.39844        0.00000
 BRILLOUIN|   315           0.00049       -0.42969        0.41406        0.00000
 BRILLOUIN|   316           0.00049       -0.42969        0.42969        0.00000
 BRILLOUIN|   317           0.00049       -0.42969        0.44531        0.00000
 BRILLOUIN|   318           0.00049       -0.42969        0.46094        0.00000
 BRILLOUIN|   319           0.00049       -0.42969        0.47656        0.00000
 BRILLOUIN|   320           0.00049       -0.42969        0.49219        0.00000
 BRILLOUIN|   321           0.00049       -0.41406       -0.49219        0.00000
 BRILLOUIN|   322           0.00049       -0.41406       -0.47656        0.00000
 BRILLOUIN|   323           0.00049       -0.41406       -0.46094        0.00000
 BRILLOUIN|   324           0.00049       -0.41406       -0.44531        0.00000
 BRILLOUIN|   325           0.00049       -0.41406       -0.42969        0.00000
 BRILLOUIN|   326           0.00049       -0.41406       -0.41406        0.00000
 BRILLOUIN|   327           0.00049       -0.41406       -0.39844        0.00000
 BRILLOUIN|   328           0.00049       -0.41406       -0.38281        0.00000
 BRILLOUIN|   329           0.00049       -0.41406       -0.36719        0.00000
 BRILLOUIN|   330           0.00049       -0.41406       -0.35156        0.00000
 BRILLOUIN|   331           0.00049       -0.41406       -0.33594        0.00000
 BRILLOUIN|   332           0.00049       -0.41406       -0.32031        0.00000
 BRILLOUIN|   333           0.00049       -0.41406       -0.30469        0.00000
 BRILLOUIN|   334           0.00049       -0.41406       -0.28906        0.00000
 BRILLOUIN|   335           0.00049       -0.41406       -0.27344        0.00000
 BRILLOUIN|   336           0.00049       -0.41406       -0.25781        0.00000
 BRILLOUIN|   337           0.00049       -0.41406       -0.24219        0.00000
 BRILLOUIN|   338           0.00049       -0.41406       -0.22656        0.00000
 BRILLOUIN|   339           0.00049       -0.41406       -0.21094        0.00000
 BRILLOUIN|   340           0.00049       -0.41406       -0.19531        0.00000
 BRILLOUIN|   341           0.00049       -0.41406       -0.17969        0.00000
 BRILLOUIN|   342           0.00049       -0.41406       -0.16406        0.00000
 BRILLOUIN|   343           0.00049       -0.41406       -0.14844        0.00000
 BRILLOUIN|   344           0.00049       -0.41406       -0.13281        0.00000
 BRILLOUIN|   345           0.00049       -0.41406       -0.11719        0.00000
 BRILLOUIN|   346           0.00049       -0.41406       -0.10156        0.00000
 BRILLOUIN|   347           0.00049       -0.41406       -0.08594        0.00000
 BRILLOUIN|   348           0.00049       -0.41406       -0.07031        0.00000
 BRILLOUIN|   349           0.00049       -0.41406       -0.05469        0.00000
 BRILLOUIN|   350           0.00049       -0.41406       -0.03906        0.00000
 BRILLOUIN|   351           0.00049       -0.41406       -0.02344        0.00000
 BRILLOUIN|   352           0.00049       -0.41406       -0.00781        0.00000
 BRILLOUIN|   353           0.00049       -0.41406        0.00781        0.00000
 BRILLOUIN|   354           0.00049       -0.41406        0.02344        0.00000
 BRILLOUIN|   355           0.00049       -0.41406        0.03906        0.00000
 BRILLOUIN|   356           0.00049       -0.41406        0.05469        0.00000
 BRILLOUIN|   357           0.00049       -0.41406        0.07031        0.00000
 BRILLOUIN|   358           0.00049       -0.41406        0.08594        0.00000
 BRILLOUIN|   359           0.00049       -0.41406        0.10156        0.00000
 BRILLOUIN|   360           0.00049       -0.41406        0.11719        0.00000
 BRILLOUIN|   361           0.00049       -0.41406        0.13281        0.00000
 BRILLOUIN|   362           0.00049       -0.41406        0.14844        0.00000
 BRILLOUIN|   363           0.00049       -0.41406        0.16406        0.00000
 BRILLOUIN|   364           0.00049       -0.41406        0.17969        0.00000
 BRILLOUIN|   365           0.00049       -0.41406        0.19531        0.00000
 BRILLOUIN|   366           0.00049       -0.41406        0.21094        0.00000
 BRILLOUIN|   367           0.00049       -0.41406        0.22656        0.00000
 BRILLOUIN|   368           0.00049       -0.41406        0.24219        0.00000
 BRILLOUIN|   369           0.00049       -0.41406        0.25781        0.00000
 BRILLOUIN|   370           0.00049       -0.41406        0.27344        0.00000
 BRILLOUIN|   371           0.00049       -0.41406        0.28906        0.00000
 BRILLOUIN|   372           0.00049       -0.41406        0.30469        0.00000
 BRILLOUIN|   373           0.00049       -0.41406        0.32031        0.00000
 BRILLOUIN|   374           0.00049       -0.41406        0.33594        0.00000
 BRILLOUIN|   375           0.00049       -0.41406        0.35156        0.00000
 BRILLOUIN|   376           0.00049       -0.41406        0.36719        0.00000
 BRILLOUIN|   377           0.00049       -0.41406        0.38281        0.00000
 BRILLOUIN|   378           0.00049       -0.41406        0.39844        0.00000
 BRILLOUIN|   379           0.00049       -0.41406        0.41406        0.00000
 BRILLOUIN|   380           0.00049       -0.41406        0.42969        0.00000
 BRILLOUIN|   381           0.00049       -0.41406        0.44531        0.00000
 BRILLOUIN|   382           0.00049       -0.41406        0.46094        0.00000
 BRILLOUIN|   383           0.00049       -0.41406        0.47656        0.00000
 BRILLOUIN|   384           0.00049       -0.41406        0.49219        0.00000
 BRILLOUIN|   385           0.00049       -0.39844       -0.49219        0.00000
 BRILLOUIN|   386           0.00049       -0.39844       -0.47656        0.00000
 BRILLOUIN|   387           0.00049       -0.39844       -0.46094        0.00000
 BRILLOUIN|   388           0.00049       -0.39844       -0.44531        0.00000
 BRILLOUIN|   389           0.00049       -0.39844       -0.42969        0.00000
 BRILLOUIN|   390           0.00049       -0.39844       -0.41406        0.00000
 BRILLOUIN|   391           0.00049       -0.39844       -0.39844        0.00000
 BRILLOUIN|   392           0.00049       -0.39844       -0.38281        0.00000
 BRILLOUIN|   393           0.00049       -0.39844       -0.36719        0.00000
 BRILLOUIN|   394           0.00049       -0.39844       -0.35156        0.00000
 BRILLOUIN|   395           0.00049       -0.39844       -0.33594        0.00000
 BRILLOUIN|   396           0.00049       -0.39844       -0.32031        0.00000
 BRILLOUIN|   397           0.00049       -0.39844       -0.30469        0.00000
 BRILLOUIN|   398           0.00049       -0.39844       -0.28906        0.00000
 BRILLOUIN|   399           0.00049       -0.39844       -0.27344        0.00000
 BRILLOUIN|   400           0.00049       -0.39844       -0.25781        0.00000
 BRILLOUIN|   401           0.00049       -0.39844       -0.24219        0.00000
 BRILLOUIN|   402           0.00049       -0.39844       -0.22656        0.00000
 BRILLOUIN|   403           0.00049       -0.39844       -0.21094        0.00000
 BRILLOUIN|   404           0.00049       -0.39844       -0.19531        0.00000
 BRILLOUIN|   405           0.00049       -0.39844       -0.17969        0.00000
 BRILLOUIN|   406           0.00049       -0.39844       -0.16406        0.00000
 BRILLOUIN|   407           0.00049       -0.39844       -0.14844        0.00000
 BRILLOUIN|   408           0.00049       -0.39844       -0.13281        0.00000
 BRILLOUIN|   409           0.00049       -0.39844       -0.11719        0.00000
 BRILLOUIN|   410           0.00049       -0.39844       -0.10156        0.00000
 BRILLOUIN|   411           0.00049       -0.39844       -0.08594        0.00000
 BRILLOUIN|   412           0.00049       -0.39844       -0.07031        0.00000
 BRILLOUIN|   413           0.00049       -0.39844       -0.05469        0.00000
 BRILLOUIN|   414           0.00049       -0.39844       -0.03906        0.00000
 BRILLOUIN|   415           0.00049       -0.39844       -0.02344        0.00000
 BRILLOUIN|   416           0.00049       -0.39844       -0.00781        0.00000
 BRILLOUIN|   417           0.00049       -0.39844        0.00781        0.00000
 BRILLOUIN|   418           0.00049       -0.39844        0.02344        0.00000
 BRILLOUIN|   419           0.00049       -0.39844        0.03906        0.00000
 BRILLOUIN|   420           0.00049       -0.39844        0.05469        0.00000
 BRILLOUIN|   421           0.00049       -0.39844        0.07031        0.00000
 BRILLOUIN|   422           0.00049       -0.39844        0.08594        0.00000
 BRILLOUIN|   423           0.00049       -0.39844        0.10156        0.00000
 BRILLOUIN|   424           0.00049       -0.39844        0.11719        0.00000
 BRILLOUIN|   425           0.00049       -0.39844        0.13281        0.00000
 BRILLOUIN|   426           0.00049       -0.39844        0.14844        0.00000
 BRILLOUIN|   427           0.00049       -0.39844        0.16406        0.00000
 BRILLOUIN|   428           0.00049       -0.39844        0.17969        0.00000
 BRILLOUIN|   429           0.00049       -0.39844        0.19531        0.00000
 BRILLOUIN|   430           0.00049       -0.39844        0.21094        0.00000
 BRILLOUIN|   431           0.00049       -0.39844        0.22656        0.00000
 BRILLOUIN|   432           0.00049       -0.39844        0.24219        0.00000
 BRILLOUIN|   433           0.00049       -0.39844        0.25781        0.00000
 BRILLOUIN|   434           0.00049       -0.39844        0.27344        0.00000
 BRILLOUIN|   435           0.00049       -0.39844        0.28906        0.00000
 BRILLOUIN|   436           0.00049       -0.39844        0.30469        0.00000
 BRILLOUIN|   437           0.00049       -0.39844        0.32031        0.00000
 BRILLOUIN|   438           0.00049       -0.39844        0.33594        0.00000
 BRILLOUIN|   439           0.00049       -0.39844        0.35156        0.00000
 BRILLOUIN|   440           0.00049       -0.39844        0.36719        0.00000
 BRILLOUIN|   441           0.00049       -0.39844        0.38281        0.00000
 BRILLOUIN|   442           0.00049       -0.39844        0.39844        0.00000
 BRILLOUIN|   443           0.00049       -0.39844        0.41406        0.00000
 BRILLOUIN|   444           0.00049       -0.39844        0.42969        0.00000
 BRILLOUIN|   445           0.00049       -0.39844        0.44531        0.00000
 BRILLOUIN|   446           0.00049       -0.39844        0.46094        0.00000
 BRILLOUIN|   447           0.00049       -0.39844        0.47656        0.00000
 BRILLOUIN|   448           0.00049       -0.39844        0.49219        0.00000
 BRILLOUIN|   449           0.00049       -0.38281       -0.49219        0.00000
 BRILLOUIN|   450           0.00049       -0.38281       -0.47656        0.00000
 BRILLOUIN|   451           0.00049       -0.38281       -0.46094        0.00000
 BRILLOUIN|   452           0.00049       -0.38281       -0.44531        0.00000
 BRILLOUIN|   453           0.00049       -0.38281       -0.42969        0.00000
 BRILLOUIN|   454           0.00049       -0.38281       -0.41406        0.00000
 BRILLOUIN|   455           0.00049       -0.38281       -0.39844        0.00000
 BRILLOUIN|   456           0.00049       -0.38281       -0.38281        0.00000
 BRILLOUIN|   457           0.00049       -0.38281       -0.36719        0.00000
 BRILLOUIN|   458           0.00049       -0.38281       -0.35156        0.00000
 BRILLOUIN|   459           0.00049       -0.38281       -0.33594        0.00000
 BRILLOUIN|   460           0.00049       -0.38281       -0.32031        0.00000
 BRILLOUIN|   461           0.00049       -0.38281       -0.30469        0.00000
 BRILLOUIN|   462           0.00049       -0.38281       -0.28906        0.00000
 BRILLOUIN|   463           0.00049       -0.38281       -0.27344        0.00000
 BRILLOUIN|   464           0.00049       -0.38281       -0.25781        0.00000
 BRILLOUIN|   465           0.00049       -0.38281       -0.24219        0.00000
 BRILLOUIN|   466           0.00049       -0.38281       -0.22656        0.00000
 BRILLOUIN|   467           0.00049       -0.38281       -0.21094        0.00000
 BRILLOUIN|   468           0.00049       -0.38281       -0.19531        0.00000
 BRILLOUIN|   469           0.00049       -0.38281       -0.17969        0.00000
 BRILLOUIN|   470           0.00049       -0.38281       -0.16406        0.00000
 BRILLOUIN|   471           0.00049       -0.38281       -0.14844        0.00000
 BRILLOUIN|   472           0.00049       -0.38281       -0.13281        0.00000
 BRILLOUIN|   473           0.00049       -0.38281       -0.11719        0.00000
 BRILLOUIN|   474           0.00049       -0.38281       -0.10156        0.00000
 BRILLOUIN|   475           0.00049       -0.38281       -0.08594        0.00000
 BRILLOUIN|   476           0.00049       -0.38281       -0.07031        0.00000
 BRILLOUIN|   477           0.00049       -0.38281       -0.05469        0.00000
 BRILLOUIN|   478           0.00049       -0.38281       -0.03906        0.00000
 BRILLOUIN|   479           0.00049       -0.38281       -0.02344        0.00000
 BRILLOUIN|   480           0.00049       -0.38281       -0.00781        0.00000
 BRILLOUIN|   481           0.00049       -0.38281        0.00781        0.00000
 BRILLOUIN|   482           0.00049       -0.38281        0.02344        0.00000
 BRILLOUIN|   483           0.00049       -0.38281        0.03906        0.00000
 BRILLOUIN|   484           0.00049       -0.38281        0.05469        0.00000
 BRILLOUIN|   485           0.00049       -0.38281        0.07031        0.00000
 BRILLOUIN|   486           0.00049       -0.38281        0.08594        0.00000
 BRILLOUIN|   487           0.00049       -0.38281        0.10156        0.00000
 BRILLOUIN|   488           0.00049       -0.38281        0.11719        0.00000
 BRILLOUIN|   489           0.00049       -0.38281        0.13281        0.00000
 BRILLOUIN|   490           0.00049       -0.38281        0.14844        0.00000
 BRILLOUIN|   491           0.00049       -0.38281        0.16406        0.00000
 BRILLOUIN|   492           0.00049       -0.38281        0.17969        0.00000
 BRILLOUIN|   493           0.00049       -0.38281        0.19531        0.00000
 BRILLOUIN|   494           0.00049       -0.38281        0.21094        0.00000
 BRILLOUIN|   495           0.00049       -0.38281        0.22656        0.00000
 BRILLOUIN|   496           0.00049       -0.38281        0.24219        0.00000
 BRILLOUIN|   497           0.00049       -0.38281        0.25781        0.00000
 BRILLOUIN|   498           0.00049       -0.38281        0.27344        0.00000
 BRILLOUIN|   499           0.00049       -0.38281        0.28906        0.00000
 BRILLOUIN|   500           0.00049       -0.38281        0.30469        0.00000
 BRILLOUIN|   501           0.00049       -0.38281        0.32031        0.00000
 BRILLOUIN|   502           0.00049       -0.38281        0.33594        0.00000
 BRILLOUIN|   503           0.00049       -0.38281        0.35156        0.00000
 BRILLOUIN|   504           0.00049       -0.38281        0.36719        0.00000
 BRILLOUIN|   505           0.00049       -0.38281        0.38281        0.00000
 BRILLOUIN|   506           0.00049       -0.38281        0.39844        0.00000
 BRILLOUIN|   507           0.00049       -0.38281        0.41406        0.00000
 BRILLOUIN|   508           0.00049       -0.38281        0.42969        0.00000
 BRILLOUIN|   509           0.00049       -0.38281        0.44531        0.00000
 BRILLOUIN|   510           0.00049       -0.38281        0.46094        0.00000
 BRILLOUIN|   511           0.00049       -0.38281        0.47656        0.00000
 BRILLOUIN|   512           0.00049       -0.38281        0.49219        0.00000
 BRILLOUIN|   513           0.00049       -0.36719       -0.49219        0.00000
 BRILLOUIN|   514           0.00049       -0.36719       -0.47656        0.00000
 BRILLOUIN|   515           0.00049       -0.36719       -0.46094        0.00000
 BRILLOUIN|   516           0.00049       -0.36719       -0.44531        0.00000
 BRILLOUIN|   517           0.00049       -0.36719       -0.42969        0.00000
 BRILLOUIN|   518           0.00049       -0.36719       -0.41406        0.00000
 BRILLOUIN|   519           0.00049       -0.36719       -0.39844        0.00000
 BRILLOUIN|   520           0.00049       -0.36719       -0.38281        0.00000
 BRILLOUIN|   521           0.00049       -0.36719       -0.36719        0.00000
 BRILLOUIN|   522           0.00049       -0.36719       -0.35156        0.00000
 BRILLOUIN|   523           0.00049       -0.36719       -0.33594        0.00000
 BRILLOUIN|   524           0.00049       -0.36719       -0.32031        0.00000
 BRILLOUIN|   525           0.00049       -0.36719       -0.30469        0.00000
 BRILLOUIN|   526           0.00049       -0.36719       -0.28906        0.00000
 BRILLOUIN|   527           0.00049       -0.36719       -0.27344        0.00000
 BRILLOUIN|   528           0.00049       -0.36719       -0.25781        0.00000
 BRILLOUIN|   529           0.00049       -0.36719       -0.24219        0.00000
 BRILLOUIN|   530           0.00049       -0.36719       -0.22656        0.00000
 BRILLOUIN|   531           0.00049       -0.36719       -0.21094        0.00000
 BRILLOUIN|   532           0.00049       -0.36719       -0.19531        0.00000
 BRILLOUIN|   533           0.00049       -0.36719       -0.17969        0.00000
 BRILLOUIN|   534           0.00049       -0.36719       -0.16406        0.00000
 BRILLOUIN|   535           0.00049       -0.36719       -0.14844        0.00000
 BRILLOUIN|   536           0.00049       -0.36719       -0.13281        0.00000
 BRILLOUIN|   537           0.00049       -0.36719       -0.11719        0.00000
 BRILLOUIN|   538           0.00049       -0.36719       -0.10156        0.00000
 BRILLOUIN|   539           0.00049       -0.36719       -0.08594        0.00000
 BRILLOUIN|   540           0.00049       -0.36719       -0.07031        0.00000
 BRILLOUIN|   541           0.00049       -0.36719       -0.05469        0.00000
 BRILLOUIN|   542           0.00049       -0.36719       -0.03906        0.00000
 BRILLOUIN|   543           0.00049       -0.36719       -0.02344        0.00000
 BRILLOUIN|   544           0.00049       -0.36719       -0.00781        0.00000
 BRILLOUIN|   545           0.00049       -0.36719        0.00781        0.00000
 BRILLOUIN|   546           0.00049       -0.36719        0.02344        0.00000
 BRILLOUIN|   547           0.00049       -0.36719        0.03906        0.00000
 BRILLOUIN|   548           0.00049       -0.36719        0.05469        0.00000
 BRILLOUIN|   549           0.00049       -0.36719        0.07031        0.00000
 BRILLOUIN|   550           0.00049       -0.36719        0.08594        0.00000
 BRILLOUIN|   551           0.00049       -0.36719        0.10156        0.00000
 BRILLOUIN|   552           0.00049       -0.36719        0.11719        0.00000
 BRILLOUIN|   553           0.00049       -0.36719        0.13281        0.00000
 BRILLOUIN|   554           0.00049       -0.36719        0.14844        0.00000
 BRILLOUIN|   555           0.00049       -0.36719        0.16406        0.00000
 BRILLOUIN|   556           0.00049       -0.36719        0.17969        0.00000
 BRILLOUIN|   557           0.00049       -0.36719        0.19531        0.00000
 BRILLOUIN|   558           0.00049       -0.36719        0.21094        0.00000
 BRILLOUIN|   559           0.00049       -0.36719        0.22656        0.00000
 BRILLOUIN|   560           0.00049       -0.36719        0.24219        0.00000
 BRILLOUIN|   561           0.00049       -0.36719        0.25781        0.00000
 BRILLOUIN|   562           0.00049       -0.36719        0.27344        0.00000
 BRILLOUIN|   563           0.00049       -0.36719        0.28906        0.00000
 BRILLOUIN|   564           0.00049       -0.36719        0.30469        0.00000
 BRILLOUIN|   565           0.00049       -0.36719        0.32031        0.00000
 BRILLOUIN|   566           0.00049       -0.36719        0.33594        0.00000
 BRILLOUIN|   567           0.00049       -0.36719        0.35156        0.00000
 BRILLOUIN|   568           0.00049       -0.36719        0.36719        0.00000
 BRILLOUIN|   569           0.00049       -0.36719        0.38281        0.00000
 BRILLOUIN|   570           0.00049       -0.36719        0.39844        0.00000
 BRILLOUIN|   571           0.00049       -0.36719        0.41406        0.00000
 BRILLOUIN|   572           0.00049       -0.36719        0.42969        0.00000
 BRILLOUIN|   573           0.00049       -0.36719        0.44531        0.00000
 BRILLOUIN|   574           0.00049       -0.36719        0.46094        0.00000
 BRILLOUIN|   575           0.00049       -0.36719        0.47656        0.00000
 BRILLOUIN|   576           0.00049       -0.36719        0.49219        0.00000
 BRILLOUIN|   577           0.00049       -0.35156       -0.49219        0.00000
 BRILLOUIN|   578           0.00049       -0.35156       -0.47656        0.00000
 BRILLOUIN|   579           0.00049       -0.35156       -0.46094        0.00000
 BRILLOUIN|   580           0.00049       -0.35156       -0.44531        0.00000
 BRILLOUIN|   581           0.00049       -0.35156       -0.42969        0.00000
 BRILLOUIN|   582           0.00049       -0.35156       -0.41406        0.00000
 BRILLOUIN|   583           0.00049       -0.35156       -0.39844        0.00000
 BRILLOUIN|   584           0.00049       -0.35156       -0.38281        0.00000
 BRILLOUIN|   585           0.00049       -0.35156       -0.36719        0.00000
 BRILLOUIN|   586           0.00049       -0.35156       -0.35156        0.00000
 BRILLOUIN|   587           0.00049       -0.35156       -0.33594        0.00000
 BRILLOUIN|   588           0.00049       -0.35156       -0.32031        0.00000
 BRILLOUIN|   589           0.00049       -0.35156       -0.30469        0.00000
 BRILLOUIN|   590           0.00049       -0.35156       -0.28906        0.00000
 BRILLOUIN|   591           0.00049       -0.35156       -0.27344        0.00000
 BRILLOUIN|   592           0.00049       -0.35156       -0.25781        0.00000
 BRILLOUIN|   593           0.00049       -0.35156       -0.24219        0.00000
 BRILLOUIN|   594           0.00049       -0.35156       -0.22656        0.00000
 BRILLOUIN|   595           0.00049       -0.35156       -0.21094        0.00000
 BRILLOUIN|   596           0.00049       -0.35156       -0.19531        0.00000
 BRILLOUIN|   597           0.00049       -0.35156       -0.17969        0.00000
 BRILLOUIN|   598           0.00049       -0.35156       -0.16406        0.00000
 BRILLOUIN|   599           0.00049       -0.35156       -0.14844        0.00000
 BRILLOUIN|   600           0.00049       -0.35156       -0.13281        0.00000
 BRILLOUIN|   601           0.00049       -0.35156       -0.11719        0.00000
 BRILLOUIN|   602           0.00049       -0.35156       -0.10156        0.00000
 BRILLOUIN|   603           0.00049       -0.35156       -0.08594        0.00000
 BRILLOUIN|   604           0.00049       -0.35156       -0.07031        0.00000
 BRILLOUIN|   605           0.00049       -0.35156       -0.05469        0.00000
 BRILLOUIN|   606           0.00049       -0.35156       -0.03906        0.00000
 BRILLOUIN|   607           0.00049       -0.35156       -0.02344        0.00000
 BRILLOUIN|   608           0.00049       -0.35156       -0.00781        0.00000
 BRILLOUIN|   609           0.00049       -0.35156        0.00781        0.00000
 BRILLOUIN|   610           0.00049       -0.35156        0.02344        0.00000
 BRILLOUIN|   611           0.00049       -0.35156        0.03906        0.00000
 BRILLOUIN|   612           0.00049       -0.35156        0.05469        0.00000
 BRILLOUIN|   613           0.00049       -0.35156        0.07031        0.00000
 BRILLOUIN|   614           0.00049       -0.35156        0.08594        0.00000
 BRILLOUIN|   615           0.00049       -0.35156        0.10156        0.00000
 BRILLOUIN|   616           0.00049       -0.35156        0.11719        0.00000
 BRILLOUIN|   617           0.00049       -0.35156        0.13281        0.00000
 BRILLOUIN|   618           0.00049       -0.35156        0.14844        0.00000
 BRILLOUIN|   619           0.00049       -0.35156        0.16406        0.00000
 BRILLOUIN|   620           0.00049       -0.35156        0.17969        0.00000
 BRILLOUIN|   621           0.00049       -0.35156        0.19531        0.00000
 BRILLOUIN|   622           0.00049       -0.35156        0.21094        0.00000
 BRILLOUIN|   623           0.00049       -0.35156        0.22656        0.00000
 BRILLOUIN|   624           0.00049       -0.35156        0.24219        0.00000
 BRILLOUIN|   625           0.00049       -0.35156        0.25781        0.00000
 BRILLOUIN|   626           0.00049       -0.35156        0.27344        0.00000
 BRILLOUIN|   627           0.00049       -0.35156        0.28906        0.00000
 BRILLOUIN|   628           0.00049       -0.35156        0.30469        0.00000
 BRILLOUIN|   629           0.00049       -0.35156        0.32031        0.00000
 BRILLOUIN|   630           0.00049       -0.35156        0.33594        0.00000
 BRILLOUIN|   631           0.00049       -0.35156        0.35156        0.00000
 BRILLOUIN|   632           0.00049       -0.35156        0.36719        0.00000
 BRILLOUIN|   633           0.00049       -0.35156        0.38281        0.00000
 BRILLOUIN|   634           0.00049       -0.35156        0.39844        0.00000
 BRILLOUIN|   635           0.00049       -0.35156        0.41406        0.00000
 BRILLOUIN|   636           0.00049       -0.35156        0.42969        0.00000
 BRILLOUIN|   637           0.00049       -0.35156        0.44531        0.00000
 BRILLOUIN|   638           0.00049       -0.35156        0.46094        0.00000
 BRILLOUIN|   639           0.00049       -0.35156        0.47656        0.00000
 BRILLOUIN|   640           0.00049       -0.35156        0.49219        0.00000
 BRILLOUIN|   641           0.00049       -0.33594       -0.49219        0.00000
 BRILLOUIN|   642           0.00049       -0.33594       -0.47656        0.00000
 BRILLOUIN|   643           0.00049       -0.33594       -0.46094        0.00000
 BRILLOUIN|   644           0.00049       -0.33594       -0.44531        0.00000
 BRILLOUIN|   645           0.00049       -0.33594       -0.42969        0.00000
 BRILLOUIN|   646           0.00049       -0.33594       -0.41406        0.00000
 BRILLOUIN|   647           0.00049       -0.33594       -0.39844        0.00000
 BRILLOUIN|   648           0.00049       -0.33594       -0.38281        0.00000
 BRILLOUIN|   649           0.00049       -0.33594       -0.36719        0.00000
 BRILLOUIN|   650           0.00049       -0.33594       -0.35156        0.00000
 BRILLOUIN|   651           0.00049       -0.33594       -0.33594        0.00000
 BRILLOUIN|   652           0.00049       -0.33594       -0.32031        0.00000
 BRILLOUIN|   653           0.00049       -0.33594       -0.30469        0.00000
 BRILLOUIN|   654           0.00049       -0.33594       -0.28906        0.00000
 BRILLOUIN|   655           0.00049       -0.33594       -0.27344        0.00000
 BRILLOUIN|   656           0.00049       -0.33594       -0.25781        0.00000
 BRILLOUIN|   657           0.00049       -0.33594       -0.24219        0.00000
 BRILLOUIN|   658           0.00049       -0.33594       -0.22656        0.00000
 BRILLOUIN|   659           0.00049       -0.33594       -0.21094        0.00000
 BRILLOUIN|   660           0.00049       -0.33594       -0.19531        0.00000
 BRILLOUIN|   661           0.00049       -0.33594       -0.17969        0.00000
 BRILLOUIN|   662           0.00049       -0.33594       -0.16406        0.00000
 BRILLOUIN|   663           0.00049       -0.33594       -0.14844        0.00000
 BRILLOUIN|   664           0.00049       -0.33594       -0.13281        0.00000
 BRILLOUIN|   665           0.00049       -0.33594       -0.11719        0.00000
 BRILLOUIN|   666           0.00049       -0.33594       -0.10156        0.00000
 BRILLOUIN|   667           0.00049       -0.33594       -0.08594        0.00000
 BRILLOUIN|   668           0.00049       -0.33594       -0.07031        0.00000
 BRILLOUIN|   669           0.00049       -0.33594       -0.05469        0.00000
 BRILLOUIN|   670           0.00049       -0.33594       -0.03906        0.00000
 BRILLOUIN|   671           0.00049       -0.33594       -0.02344        0.00000
 BRILLOUIN|   672           0.00049       -0.33594       -0.00781        0.00000
 BRILLOUIN|   673           0.00049       -0.33594        0.00781        0.00000
 BRILLOUIN|   674           0.00049       -0.33594        0.02344        0.00000
 BRILLOUIN|   675           0.00049       -0.33594        0.03906        0.00000
 BRILLOUIN|   676           0.00049       -0.33594        0.05469        0.00000
 BRILLOUIN|   677           0.00049       -0.33594        0.07031        0.00000
 BRILLOUIN|   678           0.00049       -0.33594        0.08594        0.00000
 BRILLOUIN|   679           0.00049       -0.33594        0.10156        0.00000
 BRILLOUIN|   680           0.00049       -0.33594        0.11719        0.00000
 BRILLOUIN|   681           0.00049       -0.33594        0.13281        0.00000
 BRILLOUIN|   682           0.00049       -0.33594        0.14844        0.00000
 BRILLOUIN|   683           0.00049       -0.33594        0.16406        0.00000
 BRILLOUIN|   684           0.00049       -0.33594        0.17969        0.00000
 BRILLOUIN|   685           0.00049       -0.33594        0.19531        0.00000
 BRILLOUIN|   686           0.00049       -0.33594        0.21094        0.00000
 BRILLOUIN|   687           0.00049       -0.33594        0.22656        0.00000
 BRILLOUIN|   688           0.00049       -0.33594        0.24219        0.00000
 BRILLOUIN|   689           0.00049       -0.33594        0.25781        0.00000
 BRILLOUIN|   690           0.00049       -0.33594        0.27344        0.00000
 BRILLOUIN|   691           0.00049       -0.33594        0.28906        0.00000
 BRILLOUIN|   692           0.00049       -0.33594        0.30469        0.00000
 BRILLOUIN|   693           0.00049       -0.33594        0.32031        0.00000
 BRILLOUIN|   694           0.00049       -0.33594        0.33594        0.00000
 BRILLOUIN|   695           0.00049       -0.33594        0.35156        0.00000
 BRILLOUIN|   696           0.00049       -0.33594        0.36719        0.00000
 BRILLOUIN|   697           0.00049       -0.33594        0.38281        0.00000
 BRILLOUIN|   698           0.00049       -0.33594        0.39844        0.00000
 BRILLOUIN|   699           0.00049       -0.33594        0.41406        0.00000
 BRILLOUIN|   700           0.00049       -0.33594        0.42969        0.00000
 BRILLOUIN|   701           0.00049       -0.33594        0.44531        0.00000
 BRILLOUIN|   702           0.00049       -0.33594        0.46094        0.00000
 BRILLOUIN|   703           0.00049       -0.33594        0.47656        0.00000
 BRILLOUIN|   704           0.00049       -0.33594        0.49219        0.00000
 BRILLOUIN|   705           0.00049       -0.32031       -0.49219        0.00000
 BRILLOUIN|   706           0.00049       -0.32031       -0.47656        0.00000
 BRILLOUIN|   707           0.00049       -0.32031       -0.46094        0.00000
 BRILLOUIN|   708           0.00049       -0.32031       -0.44531        0.00000
 BRILLOUIN|   709           0.00049       -0.32031       -0.42969        0.00000
 BRILLOUIN|   710           0.00049       -0.32031       -0.41406        0.00000
 BRILLOUIN|   711           0.00049       -0.32031       -0.39844        0.00000
 BRILLOUIN|   712           0.00049       -0.32031       -0.38281        0.00000
 BRILLOUIN|   713           0.00049       -0.32031       -0.36719        0.00000
 BRILLOUIN|   714           0.00049       -0.32031       -0.35156        0.00000
 BRILLOUIN|   715           0.00049       -0.32031       -0.33594        0.00000
 BRILLOUIN|   716           0.00049       -0.32031       -0.32031        0.00000
 BRILLOUIN|   717           0.00049       -0.32031       -0.30469        0.00000
 BRILLOUIN|   718           0.00049       -0.32031       -0.28906        0.00000
 BRILLOUIN|   719           0.00049       -0.32031       -0.27344        0.00000
 BRILLOUIN|   720           0.00049       -0.32031       -0.25781        0.00000
 BRILLOUIN|   721           0.00049       -0.32031       -0.24219        0.00000
 BRILLOUIN|   722           0.00049       -0.32031       -0.22656        0.00000
 BRILLOUIN|   723           0.00049       -0.32031       -0.21094        0.00000
 BRILLOUIN|   724           0.00049       -0.32031       -0.19531        0.00000
 BRILLOUIN|   725           0.00049       -0.32031       -0.17969        0.00000
 BRILLOUIN|   726           0.00049       -0.32031       -0.16406        0.00000
 BRILLOUIN|   727           0.00049       -0.32031       -0.14844        0.00000
 BRILLOUIN|   728           0.00049       -0.32031       -0.13281        0.00000
 BRILLOUIN|   729           0.00049       -0.32031       -0.11719        0.00000
 BRILLOUIN|   730           0.00049       -0.32031       -0.10156        0.00000
 BRILLOUIN|   731           0.00049       -0.32031       -0.08594        0.00000
 BRILLOUIN|   732           0.00049       -0.32031       -0.07031        0.00000
 BRILLOUIN|   733           0.00049       -0.32031       -0.05469        0.00000
 BRILLOUIN|   734           0.00049       -0.32031       -0.03906        0.00000
 BRILLOUIN|   735           0.00049       -0.32031       -0.02344        0.00000
 BRILLOUIN|   736           0.00049       -0.32031       -0.00781        0.00000
 BRILLOUIN|   737           0.00049       -0.32031        0.00781        0.00000
 BRILLOUIN|   738           0.00049       -0.32031        0.02344        0.00000
 BRILLOUIN|   739           0.00049       -0.32031        0.03906        0.00000
 BRILLOUIN|   740           0.00049       -0.32031        0.05469        0.00000
 BRILLOUIN|   741           0.00049       -0.32031        0.07031        0.00000
 BRILLOUIN|   742           0.00049       -0.32031        0.08594        0.00000
 BRILLOUIN|   743           0.00049       -0.32031        0.10156        0.00000
 BRILLOUIN|   744           0.00049       -0.32031        0.11719        0.00000
 BRILLOUIN|   745           0.00049       -0.32031        0.13281        0.00000
 BRILLOUIN|   746           0.00049       -0.32031        0.14844        0.00000
 BRILLOUIN|   747           0.00049       -0.32031        0.16406        0.00000
 BRILLOUIN|   748           0.00049       -0.32031        0.17969        0.00000
 BRILLOUIN|   749           0.00049       -0.32031        0.19531        0.00000
 BRILLOUIN|   750           0.00049       -0.32031        0.21094        0.00000
 BRILLOUIN|   751           0.00049       -0.32031        0.22656        0.00000
 BRILLOUIN|   752           0.00049       -0.32031        0.24219        0.00000
 BRILLOUIN|   753           0.00049       -0.32031        0.25781        0.00000
 BRILLOUIN|   754           0.00049       -0.32031        0.27344        0.00000
 BRILLOUIN|   755           0.00049       -0.32031        0.28906        0.00000
 BRILLOUIN|   756           0.00049       -0.32031        0.30469        0.00000
 BRILLOUIN|   757           0.00049       -0.32031        0.32031        0.00000
 BRILLOUIN|   758           0.00049       -0.32031        0.33594        0.00000
 BRILLOUIN|   759           0.00049       -0.32031        0.35156        0.00000
 BRILLOUIN|   760           0.00049       -0.32031        0.36719        0.00000
 BRILLOUIN|   761           0.00049       -0.32031        0.38281        0.00000
 BRILLOUIN|   762           0.00049       -0.32031        0.39844        0.00000
 BRILLOUIN|   763           0.00049       -0.32031        0.41406        0.00000
 BRILLOUIN|   764           0.00049       -0.32031        0.42969        0.00000
 BRILLOUIN|   765           0.00049       -0.32031        0.44531        0.00000
 BRILLOUIN|   766           0.00049       -0.32031        0.46094        0.00000
 BRILLOUIN|   767           0.00049       -0.32031        0.47656        0.00000
 BRILLOUIN|   768           0.00049       -0.32031        0.49219        0.00000
 BRILLOUIN|   769           0.00049       -0.30469       -0.49219        0.00000
 BRILLOUIN|   770           0.00049       -0.30469       -0.47656        0.00000
 BRILLOUIN|   771           0.00049       -0.30469       -0.46094        0.00000
 BRILLOUIN|   772           0.00049       -0.30469       -0.44531        0.00000
 BRILLOUIN|   773           0.00049       -0.30469       -0.42969        0.00000
 BRILLOUIN|   774           0.00049       -0.30469       -0.41406        0.00000
 BRILLOUIN|   775           0.00049       -0.30469       -0.39844        0.00000
 BRILLOUIN|   776           0.00049       -0.30469       -0.38281        0.00000
 BRILLOUIN|   777           0.00049       -0.30469       -0.36719        0.00000
 BRILLOUIN|   778           0.00049       -0.30469       -0.35156        0.00000
 BRILLOUIN|   779           0.00049       -0.30469       -0.33594        0.00000
 BRILLOUIN|   780           0.00049       -0.30469       -0.32031        0.00000
 BRILLOUIN|   781           0.00049       -0.30469       -0.30469        0.00000
 BRILLOUIN|   782           0.00049       -0.30469       -0.28906        0.00000
 BRILLOUIN|   783           0.00049       -0.30469       -0.27344        0.00000
 BRILLOUIN|   784           0.00049       -0.30469       -0.25781        0.00000
 BRILLOUIN|   785           0.00049       -0.30469       -0.24219        0.00000
 BRILLOUIN|   786           0.00049       -0.30469       -0.22656        0.00000
 BRILLOUIN|   787           0.00049       -0.30469       -0.21094        0.00000
 BRILLOUIN|   788           0.00049       -0.30469       -0.19531        0.00000
 BRILLOUIN|   789           0.00049       -0.30469       -0.17969        0.00000
 BRILLOUIN|   790           0.00049       -0.30469       -0.16406        0.00000
 BRILLOUIN|   791           0.00049       -0.30469       -0.14844        0.00000
 BRILLOUIN|   792           0.00049       -0.30469       -0.13281        0.00000
 BRILLOUIN|   793           0.00049       -0.30469       -0.11719        0.00000
 BRILLOUIN|   794           0.00049       -0.30469       -0.10156        0.00000
 BRILLOUIN|   795           0.00049       -0.30469       -0.08594        0.00000
 BRILLOUIN|   796           0.00049       -0.30469       -0.07031        0.00000
 BRILLOUIN|   797           0.00049       -0.30469       -0.05469        0.00000
 BRILLOUIN|   798           0.00049       -0.30469       -0.03906        0.00000
 BRILLOUIN|   799           0.00049       -0.30469       -0.02344        0.00000
 BRILLOUIN|   800           0.00049       -0.30469       -0.00781        0.00000
 BRILLOUIN|   801           0.00049       -0.30469        0.00781        0.00000
 BRILLOUIN|   802           0.00049       -0.30469        0.02344        0.00000
 BRILLOUIN|   803           0.00049       -0.30469        0.03906        0.00000
 BRILLOUIN|   804           0.00049       -0.30469        0.05469        0.00000
 BRILLOUIN|   805           0.00049       -0.30469        0.07031        0.00000
 BRILLOUIN|   806           0.00049       -0.30469        0.08594        0.00000
 BRILLOUIN|   807           0.00049       -0.30469        0.10156        0.00000
 BRILLOUIN|   808           0.00049       -0.30469        0.11719        0.00000
 BRILLOUIN|   809           0.00049       -0.30469        0.13281        0.00000
 BRILLOUIN|   810           0.00049       -0.30469        0.14844        0.00000
 BRILLOUIN|   811           0.00049       -0.30469        0.16406        0.00000
 BRILLOUIN|   812           0.00049       -0.30469        0.17969        0.00000
 BRILLOUIN|   813           0.00049       -0.30469        0.19531        0.00000
 BRILLOUIN|   814           0.00049       -0.30469        0.21094        0.00000
 BRILLOUIN|   815           0.00049       -0.30469        0.22656        0.00000
 BRILLOUIN|   816           0.00049       -0.30469        0.24219        0.00000
 BRILLOUIN|   817           0.00049       -0.30469        0.25781        0.00000
 BRILLOUIN|   818           0.00049       -0.30469        0.27344        0.00000
 BRILLOUIN|   819           0.00049       -0.30469        0.28906        0.00000
 BRILLOUIN|   820           0.00049       -0.30469        0.30469        0.00000
 BRILLOUIN|   821           0.00049       -0.30469        0.32031        0.00000
 BRILLOUIN|   822           0.00049       -0.30469        0.33594        0.00000
 BRILLOUIN|   823           0.00049       -0.30469        0.35156        0.00000
 BRILLOUIN|   824           0.00049       -0.30469        0.36719        0.00000
 BRILLOUIN|   825           0.00049       -0.30469        0.38281        0.00000
 BRILLOUIN|   826           0.00049       -0.30469        0.39844        0.00000
 BRILLOUIN|   827           0.00049       -0.30469        0.41406        0.00000
 BRILLOUIN|   828           0.00049       -0.30469        0.42969        0.00000
 BRILLOUIN|   829           0.00049       -0.30469        0.44531        0.00000
 BRILLOUIN|   830           0.00049       -0.30469        0.46094        0.00000
 BRILLOUIN|   831           0.00049       -0.30469        0.47656        0.00000
 BRILLOUIN|   832           0.00049       -0.30469        0.49219        0.00000
 BRILLOUIN|   833           0.00049       -0.28906       -0.49219        0.00000
 BRILLOUIN|   834           0.00049       -0.28906       -0.47656        0.00000
 BRILLOUIN|   835           0.00049       -0.28906       -0.46094        0.00000
 BRILLOUIN|   836           0.00049       -0.28906       -0.44531        0.00000
 BRILLOUIN|   837           0.00049       -0.28906       -0.42969        0.00000
 BRILLOUIN|   838           0.00049       -0.28906       -0.41406        0.00000
 BRILLOUIN|   839           0.00049       -0.28906       -0.39844        0.00000
 BRILLOUIN|   840           0.00049       -0.28906       -0.38281        0.00000
 BRILLOUIN|   841           0.00049       -0.28906       -0.36719        0.00000
 BRILLOUIN|   842           0.00049       -0.28906       -0.35156        0.00000
 BRILLOUIN|   843           0.00049       -0.28906       -0.33594        0.00000
 BRILLOUIN|   844           0.00049       -0.28906       -0.32031        0.00000
[...]
 -                                                                             -
 -------------------------------------------------------------------------------
 SUBROUTINE                       CALLS  ASD         SELF TIME        TOTAL TIME
                                MAXIMUM       AVERAGE  MAXIMUM  AVERAGE  MAXIMUM
 CP2K                                 1  1.0     1.03     2.76 29309.41 29309.76
 qs_energies                          1  2.0     0.01     0.03 29071.82 29072.34
 qs_energies_properties               1  3.0     0.00     0.00 28170.01 28170.51
 post_scf_bandstructure               1  4.0     0.00     0.01 28170.01 28170.51
 gw                                   1  5.0     0.01     0.02 28095.62 28095.95
 gw_calc_small_cell_full_kp           1  6.0     0.00     0.00 28020.38 28020.73
 compute_chi                          1  7.0     0.05     0.63 14201.97 14202.43
 dbt_total                      *******  9.6    26.90    30.38 10510.46 13644.34
 dbt_contract                   7882705 10.4    51.85    58.27 10124.69 13204.99
 dbt_tas_multiply               9838854 12.9     7.65     8.84  9770.17 12848.51
 dbt_tas_total                  9838854 13.9   289.46   328.46  9765.41 12843.26
 dbt_tas_estimate_result_nze    4919427 13.4   132.83   152.93  5795.36  8053.43
 compute_W_real_space                 1  7.0     3.31     3.61  7475.10  7475.34
 G_times_3c                       24396  8.0    27.11    30.35  5616.01  6659.52
 mp_sync                        ******* 12.5  3882.49  6127.25  3882.49  6127.25
 compute_Sigma_c                      1  7.0     0.00     0.00  4472.68  4473.45
 contract_M_occ_vir_to_chi           74  8.0    67.68    79.07  2389.36  4468.81
 compute_Minv_and_Vsqrt               1  8.0     0.02     0.03  3850.63  3850.79
 build_2c_coulomb_matrix_kp_sma       2  9.0     7.79    20.58  3837.99  3838.11
 G_occ_vir                          121  8.0     1.11     1.26  3812.05  3833.15
 dbm_reserve_blocks             ******* 16.6  2034.22  3288.49  2034.22  3288.49
 build_2c_coulomb_matrix_kp_sma 2621440 10.0  3126.44  3238.92  3126.44  3238.92
 convert_to_new_pgrid           ******* 14.9    40.58    47.26  2441.40  3196.75
 dbm_copy                       ******* 15.9  2400.82  3149.86  2400.82  3149.86
 fm_to_local_array                  934  8.1    33.39    33.82  3087.85  3088.29
 mp_sum_dm3                        1073  9.0  3074.15  3075.11  3074.15  3075.11
 dbt_tas_dbm                    9838854 14.9     7.18     7.89  2246.72  2937.61
 dbm_multiply                   9838854 16.9  2231.11  2920.38  2231.11  2920.38
 dbcsr_complete_redistribute    2085548  9.6    41.79    83.68  2513.03  2844.70
 mp_alltoall_i22                3912445 10.0  2214.48  2571.21  2214.48  2571.21
 fm_to_local_tensor              603288  9.0     6.29     9.31  2553.63  2554.25
 dbt_tas_reserve_blocks_index   ******* 15.8    20.26    22.69  1467.43  2488.97
 copy_fm_to_dbcsr                923091  9.3     1.91     2.00  1854.31  2173.87
 global_matrix_to_local_matrix   603288 10.0     8.51    11.80   646.19  2049.89
 contract_to_Sigma                  142  8.0    54.34    58.89  1699.11  1942.26
 send_data                       603288 11.0     0.39     0.45   366.08  1836.96
 communicate_buffer              603288 12.0     3.12    64.42   365.69  1836.51
 dbt_tas_reserve_blocks_templat ******* 14.1    17.12    19.31   947.46  1736.05
 mp_waitall_1                   6355242 11.0   367.32  1663.87   367.32  1663.87
 reshape_mm_small               9838854 14.9   529.95   603.84  1314.81  1566.71
 dbt_tas_mm_1N                  2325504 15.5     1.30     1.50  1358.65  1564.06
 parallel_gemm_cfm              1038848  9.0     0.69     0.80  1452.60  1499.32
 parallel_gemm_cfm_cosma        1038848 10.0  1451.91  1498.69  1451.91  1498.69
 compute_QP_energies                  1  7.0     0.34     0.45  1259.08  1263.21
 trafo_to_k_and_nn               258884  8.0     0.86     1.00  1258.24  1262.37
 contract_W                          74  8.0    17.64    19.48  1172.31  1258.60
 dbt_tas_mm_2                   3632810 16.0     2.41     3.64   625.93  1225.56
 contract_to_Sigma_3c_x_G       1924115  9.0     2.24     2.44  1021.85  1101.47
 copy_dbcsr_to_fm               1162457  8.0     6.08     6.36   968.31  1011.08
 dbm_add                        9838854 14.9   653.55   959.31   653.55   959.31
 dbt_tas_reshape                ******* 15.5    43.88    47.19   690.99   943.13
 fm_add_ikp_to_rs                495616  9.0   584.34   607.02   883.63   908.41
 scf_env_do_scf                       1  3.0     0.00     0.02   899.16   899.17
 scf_env_do_scf_inner_loop           78  4.0     0.01     0.02   899.15   899.17
 qs_scf_new_mos_kp                   78  5.0     0.00     0.00   881.96   882.03
 do_general_diag_kp                  78  6.0     1.48     1.54   881.96   882.03
 dbt_tas_reshape_buffer_obtain  ******* 16.5    42.97    45.92   541.37   790.82
 dbt_tas_replicate              9838854 14.9    92.04    97.13   705.82   785.56
 contract_to_Sigma_contract       22148  9.0    24.72    27.17   593.38   775.63
 compute_Sigma_x                      1  7.0     0.00     0.00   611.55   612.18
 dbt_tas_create_split           ******* 15.9    15.78    18.17   538.97   608.46
 dbt_tas_create_split_rows_or_c ******* 16.9    56.70    63.85   523.19   591.22
 fm_trafo_rs_to_ikp              258884  9.0   311.61   328.70   516.55   548.75
 reshape_mm_compatible          9838854 14.9    72.17    81.78   491.17   545.88
 add_ikp_to_rs                  ******* -0.5   472.54   488.99   472.54   488.99
 local_dbt_to_global_fm              91  8.0     0.59     0.64   488.69   488.70
 dbcsr_desymmetrize_deep        1826897  8.3    20.31    21.88   425.44   469.37
 dbt_copy                       ******* 10.9    40.85    47.52   408.47   467.04
 dbt_destroy                    ******* 10.6   393.33   437.39   398.79   442.90
 mp_sum_dm                      2621675 10.0   369.03   425.85   369.03   425.85
 dbt_tas_distribution_new       ******* 15.6   195.74   212.69   386.97   422.00
 add_rs_to_ikp                  ******* -1.7   382.70   409.17   382.70   409.17
 mp_cart_sub                    2324993 10.0   407.50   407.89   407.50   407.89
 change_split                   ******* 15.4    23.63    27.13   330.93   381.47
 mp_cart_create                 ******* 16.4   317.56   343.89   343.76   372.94
 dbt_tas_merge                  3632810 15.0    27.34    40.44   120.56   350.02
 dbt_reshape                    7773729 11.8   173.36   199.59   240.52   275.79
 dbt_tas_mm_3T                  4328928 16.1     2.31     2.65   253.26   274.80
 fm_MWM_R_t_to_local_tensor_W_R      30  8.0     0.08     0.09   263.46   263.51
 get_V_tr_R                          34  9.0     0.30     0.32   241.41   241.44
 mult_W_with_Minv                    30  8.0     0.41     0.46   236.42   236.42
 get_t_3c_int                   5658711  9.3    11.39    12.12   199.02   233.29
 local_dbt_to_global_mat         361179  9.0     0.98     1.03   115.98   230.73
 bs_env_release                       1  2.0     0.38     0.49   186.19   228.74
 trafo_rs_to_ikp                  21472  8.1    27.64    29.89   205.40   222.66
 add_V_L                        1310720 10.0     3.31   221.77     3.31   221.77
 mp_sum_i                       8982704 15.7   217.49   221.61   217.49   221.61
 send_sizes_1                    603288 11.0     0.35     0.39   215.32   219.46
 add_ikp_to_all_rs                19696  8.0    24.59    25.71   197.91   208.96
 dbt_remap                       830890 11.0    73.14    81.89   190.15   207.98
 mp_comm_dup                    ******* 18.4   167.24   188.79   181.72   205.33
 cp_fm_start_copy_general        958464  7.3     3.99     7.27   186.95   189.84
 local_matrix_to_global_matrix   361179 10.0     0.68     0.73    74.94   189.81
 destroy_t_1d                        98  8.0     0.90     1.02   171.02   177.39
 add_R                          ******* -6.4   105.77   116.67   158.13   173.12
 kpoint_density_transform            78  7.0     0.45     0.49   167.46   167.49
 mp_allgather_i                 1916928  8.3   148.44   154.87   148.44   154.87
 mp_alltoall_d11v               ******* 10.4    36.56   134.79    36.56   134.79
 comm_data                       361179 11.0     0.57     3.31    31.24   134.60
 mp_comm_split_direct           ******* 17.9   109.46   125.25   117.17   133.59
 mp_waitall_2                    722358 12.0    28.66   129.64    28.66   129.64
 mp_comm_free                   ******* 15.4   114.10   128.06   114.10   128.06
 mp_max_i                       ******* 11.4    45.72   113.56    45.72   113.56
 get_Minv_Vtr_Minv_R                  1  8.0     0.02     0.02   109.35   109.38
 is_cell_in_index_to_cell       *******  1.2    97.66   107.34    97.66   107.34
 dbt_permute_index              ******* 12.2    77.24    88.10    87.27    99.85
 mp_isend_dv                    ******* 11.2     3.63    91.18     3.63    91.18
 dbt_tas_copy                   4450389 12.3    25.10    32.62    77.58    85.94
 dbt_distribution_new_expert    2868366 12.1    14.16    14.97    81.18    85.66
 dbt_tas_create_new             ******* 15.2    73.91    83.66    73.91    83.66
 reshape_mm_template            1661780 15.5    51.61    57.43    75.71    82.28
 dbt_align_index                ******* 11.4    12.68    14.67    71.98    80.03
 create_and_init_bs_env_for_gw        1  6.0     0.01     0.04    75.22    75.23
 mp_alltoall_i11v               8083541 10.3    50.10    69.02    50.10    69.02
 dbt_tas_reshape_buffer_fill    ******* 16.5    65.12    68.83    65.12    68.83
 mp_sum_dv                       284587  8.9    51.38    66.59    51.38    66.59
 rskp_transform                  332220  7.1     0.92    66.16     0.92    66.16
 dbt_tas_mp_comm                5649149 13.1     7.29     8.07    57.32    64.66
 dbt_create_matrix               603288 10.0     3.36     3.59    61.69    64.39
 dbcsr_finalize                 7870876 11.0    12.09    15.00    50.29    62.50
 dbt_reserve_blocks_index       9461577 13.6     6.88     8.01    47.53    58.27
 mp_alltoall_i                  ******* 15.3    53.60    56.56    53.60    56.56
 dbt_reserve_blocks_index_array 8780079 12.8     4.88     5.94    41.72    51.70
 mp_comm_size                   ******* -3.2    42.31    50.90    42.31    50.90
 get_data                        603288 11.0    17.86    49.81    18.74    50.80
 create_and_init_bs_env               1  5.0     0.00     0.00    49.87    49.88
 compute_cfm_mo_coeff_kp_and_ei       1  6.0     0.01     0.01    49.85    49.85
 mp_cart_get                    ******* -8.3    41.77    47.53    41.77    47.53
 dbt_create_new                 1434183 11.6     8.85     9.52    42.57    45.18
 destroy_t_2d                        62  8.0    12.05    24.98    29.54    43.74
 dbt_create_3c_R1_R2                 62  8.0     8.62     9.43    35.40    37.96
 dbt_copy_nocomm                1079402 11.0    11.98    27.99    18.12    37.03
 transform_dmat                  159744  8.0     0.43    33.96     0.43    33.96
 mp_comm_rank                   ******* -3.2    28.94    33.32    28.94    33.32
 dbcsr_filter_anytype           2693313 11.0     5.38     5.85    19.66    33.20
 dbt_create_template            *******  9.0    28.69    31.62    28.69    31.62
 dbcsr_merge_all                3085236 11.7    18.14    22.20    24.65    31.01
 cp_cfm_geeig_canon                4244  7.0     0.02     0.02    30.91    31.00
 mp_bcast_iv                    3834196  8.3    28.11    30.65    28.11    30.65
 cp_cfm_heevd                      9112  8.0     0.01     0.01    29.44    29.57
 cp_cfm_heevd_base                 9112  9.0    29.43    29.56    29.43    29.56
 dbt_pgrid_create_expert        2868369 13.1     3.19     3.54    27.43    29.44
 send_sizes_2                    603288 11.0     0.37     0.42    26.50    28.67
 dbt_communicate_buffer         7773729 12.8    24.84    28.24    24.84    28.24
 rsmat_to_kp                      12732  7.3     0.09     0.10    27.36    27.52
 compute_3c_integrals                 1  7.0     0.16     0.17    27.03    27.09
 build_3c_integrals                   1  8.0    19.55    20.09    25.80    26.23
 dos_pdos_ldos                        1  5.0     0.01     0.01    24.52    25.02
 dbm_filter                     ******* 14.8    20.03    23.44    20.03    23.44
 compute_proj_mo_on_kind           4244  6.0     0.04     0.05    23.12    23.13
 dbt_nd_mp_comm                 1434178 11.6     1.89     2.04    21.47    23.11
 mp_isend_im2                   ******* 12.9     0.37    21.92     0.37    21.92
 set_blocks                      361179 11.0     5.78     9.60    11.64    20.98
 trafo_V_xc_R_to_kp                   1  7.0     0.01     0.02    20.23    20.28
 dbt_create_2c_R                     98  8.0    14.16    17.54    15.31    18.67
 dbcsr_create_new               6703940  9.9    13.34    14.61    16.75    18.18
 comm_size                       361179 11.0     0.36     0.40    16.69    17.75
 dbt_copy_matrix_to_tensor       603288 10.0     2.18     2.31    14.31    16.85
 mp_sum_l                       ******* 15.0    14.55    16.41    14.55    16.41
 dbt_tas_reshape_communicate_bu ******* 16.5     5.98     6.66    14.90    16.23
 power                            40816  8.0     1.76     2.42    13.01    15.01
 dbcsr_iterator_start           ******* 10.8    10.91    11.49    13.80    14.47
 dbt_tas_reshape_get_coord      ******* 16.5    12.66    14.07    12.66    14.07
 dbt_reserve_blocks_matrix_to_t  603288 11.0     1.47     1.57    11.30    13.75
 copy_fm_to_dbcsr_bc             923091 10.3     3.95     4.26    13.13    13.52
 dbt_tas_communicate_buffer     ******* 17.2    12.28    13.45    12.28    13.45
 mp_sum_iv                           24  6.1     6.52    13.01     6.52    13.01
 setup_parallelization_Delta_R        1  7.0     0.00     0.00    12.70    12.71
 heuristic_RI_regularization          1  7.0     0.00     0.00    12.69    12.69
 compute_n_tensor_ops_Delta_R         1  8.0     2.98     5.37    12.65    12.65
 diag_complex                     40816  9.0    11.25    12.58    11.25    12.58
 dbm_scale                      ******* 14.5    10.56    12.41    10.56    12.41
 qs_ks_update_qs_env                 78  5.0     0.00     0.00     8.33    11.85
 hybrid_alltoall_any            1826897  9.3     4.81     5.03     9.23    11.74
 qs_ks_build_kohn_sham_matrix        81  7.0     0.03     0.04     7.68    11.35
 fill_buffer                     361179 11.0     9.39    10.70     9.90    11.22
 dbt_tas_reshape_alltoall       ******* 16.5     5.39     6.32     9.92    10.99
 rebuild_ks_matrix                   78  6.0     0.00     0.00     7.39    10.94
 dbcsr_work_create              4912133 10.2     6.08     7.34     8.85    10.77
 dbt_reserve_blocks_template    1079402 12.0     1.11     1.78     6.13    10.49
 dbcsr_destroy                  6292676  9.6     5.12     5.52     9.57    10.29
 dbcsr_iterator_stop            ******* 10.8     7.61     8.12     9.60    10.23
 dbcsr_data_release             ******* 11.4     8.55     9.44     8.55     9.44
 reserve_blocks                  603288 11.0     1.47     1.58     6.81     8.64
 mp_bcast_i                     ******* 17.9     6.98     8.35     6.98     8.35
 dbcsr_work_destroy_all         4912133 11.1     5.17     6.16     7.01     8.25
 dbcsr_data_new                 ******* 10.9     7.20     8.10     7.20     8.10
 dbt_distribution_destroy       2868366 12.1     5.12     5.61     6.65     7.21
 mp_bcast_im                    1916928  8.3     5.15     7.12     5.15     7.12
 mp_dims_create                 ******* 14.2     6.10     7.06     6.10     7.06
 qs_rho_update_rho_low               79  5.0     0.00     0.00     6.55     6.56
 dbt_tas_replicate_communicate_ 6633894 15.9     3.57     3.92     5.95     6.50
 transfer_pw2rs                     406 10.6     0.00     0.00     6.17     6.25
 sum_up_and_integrate                81  8.0     0.01     0.02     1.33     6.19
 integrate_v_rspace                  81  9.0     0.00     0.01     1.32     6.18
 transfer_pw2rs_250                 163 11.0     0.10     0.11     5.71     5.79
 get_coord                       361179 11.0     3.03     3.22     4.79     5.78
 dbcsr_reserve_blocks           2411820 12.2     3.03     4.46     3.94     5.69
 dbt_tas_replicate_alltoall     6633894 15.9     3.11     3.44     4.95     5.47
 quick_finalize                 1826897 10.3     2.66     3.26     4.21     5.23
 integrate_vhg0_rspace               81  8.0     0.00     0.01     5.09     5.16
 grid_integrate_task_list            81 10.0     0.06     4.93     0.06     4.93
 copy_dbcsr_to_fm_bc            1162457  9.0     2.55     2.88     4.53     4.87
 mp_cart_rank                   ******* 15.9     4.21     4.78     4.21     4.78
 transfer_rs2pw                     399  8.4     0.00     0.00     4.57     4.71
 calculate_rho_elec                  79  6.0     0.00     0.01     4.70     4.70
 dbcsr_reserve_all_blocks       1284270 11.5     0.97     1.03     3.28     4.63
 dbcsr_set                      6417405 10.5     3.05     3.20     4.37     4.60
 transfer_rs2pw_250                 162 10.0     0.12     0.14     4.43     4.56
 mp_sendrecv_dv                  101745 10.4     4.42     4.56     4.42     4.56
 density_rs2pw                       79  7.0     0.00     0.00     4.48     4.55
 grid_collocate_task_list            79  7.0     0.21     4.14     0.21     4.14
 create_qs_kind_set                   1  2.0     0.00     0.00     2.95     4.13
 read_qs_kind                         2  3.0     0.81     0.94     2.94     4.13
 dbt_buffer_get_index           ******* 16.8     3.56     4.08     3.56     4.08
 dbcsr_copy                      731067 10.3     0.99     1.31     3.15     3.88
 dbt_tas_merge_alltoall         3632810 16.0     1.40     2.07     2.55     3.80
 update_ks_atom                      81  8.0     0.04     3.72     0.12     3.80
 dbt_tas_merge_communicate_buff 3632810 16.0     1.49     2.19     2.47     3.74
 tree_to_linear_d               2572720 12.6     2.84     3.73     2.84     3.73
 build_2c_integrals                  34 10.0     0.13     1.36     0.39     3.52
 dbcsr_iterator_seek            ******* 11.8     2.89     3.51     2.89     3.51
 qs_init_subsys                       1  2.0     0.42     1.45     2.51     3.48
 qs_env_setup                         1  3.0     0.00     0.01     2.09     3.48
 qs_env_rebuild_pw_env                2  3.5     0.00     0.00     2.09     3.48
 pw_env_rebuild                       1  5.0     0.01     0.03     2.09     3.48
 abc_contract_xsmm               318004  9.0     3.31     3.46     3.31     3.46
 pw_grid_setup                        4  6.0     0.00     0.01     2.06     3.45
 pw_grid_setup_internal               4  7.0     0.00     0.00     2.05     3.45
 parser_read_line                329352  4.0     0.05     0.05     2.13     3.36
 parser_read_line_low               339  5.0     0.02     0.41     2.09     3.31
 broadcast_input_information        339  6.0     0.08     0.09     2.07     3.30
 dbt_copy_tensor_to_matrix       361179 10.0     0.91     0.98     3.09     3.24
 mp_bcast_i_src                    1356  7.0     1.70     2.95     1.70     2.95
 -------------------------------------------------------------------------------

 The number of warnings for this run is : 1
 
 -------------------------------------------------------------------------------
  **** **** ******  **  PROGRAM ENDED AT                 2025-09-20 23:44:13.271
 ***** ** ***  *** **   PROGRAM RAN ON                    n2lcn0119.ab2021.local
 **    ****   ******    PROGRAM RAN BY                                  metdyn02
 ***** **    ** ** **   PROGRAM PROCESS ID                               3503880
  **** **  *******  **  PROGRAM STOPPED IN /scratch/hpc-prf-metdyn/metdyn02_Remi
                                           /14_hBN/aug-SZV-MOLOPT
