 DBCSR| CPU Multiplication driver                                           XSMM (U)
 DBCSR| Multrec recursion limit                                              512 (U)
 DBCSR| Multiplication stack size                                           1000 (D)
 DBCSR| Maximum elements for images                                    UNLIMITED (U)
 DBCSR| Multiplicative factor virtual images                                   1 (U)
 DBCSR| Use multiplication densification                                       T (D)
 DBCSR| Multiplication size stacks                                             3 (U)
 DBCSR| Use memory pool for CPU allocation                                     F (U)
 DBCSR| Number of 3D layers                                               SINGLE (U)
 DBCSR| Use MPI memory allocation                                              F (U)
 DBCSR| Use RMA algorithm                                                      F (U)
 DBCSR| Use Communication thread                                               T (U)
 DBCSR| Communication thread load                                             60 (D)
 DBCSR| MPI: My process id                                                     0
 DBCSR| MPI: Number of processes                                             128
 DBCSR| OMP: Current number of threads                                         8
 DBCSR| OMP: Max number of threads                                             8
 DBCSR| Split modifier for TAS multiplication algorithm                  1.0E+00 (U)


  **** **** ******  **  PROGRAM STARTED AT               2025-09-11 02:05:51.704
 ***** ** ***  *** **   PROGRAM STARTED ON                              n2cn0202
 **    ****   ******    PROGRAM STARTED BY                              metdyn02
 ***** **    ** ** **   PROGRAM PROCESS ID                                260889
  **** **  *******  **  PROGRAM STARTED IN /scratch/hpc-prf-metdyn/metdyn02_Remi
                                           /14_hBN/DZVP-MOLOPT

 CP2K| version string:                 CP2K version 2025.2 (Development Version)
 CP2K| source code revision number:                                  git:8d80afc
 CP2K| cp2kflags: omp libint fftw3 libxc libgrpp elpa parallel scalapack mpi_f08
 CP2K|             cosma xsmm plumed2 spglib libvori libbqb libvdwxc hdf5
 CP2K| is freely available from                            https://www.cp2k.org/
 CP2K| Program compiled at                         Mon Sep  8 11:02:08 CEST 2025
 CP2K| Program compiled on                                              n2login1
 CP2K| Program compiled for                                                local
 CP2K| Data directory path    /opt/software/pc2/EB-SW/software/CP2K/2025.2-foss-
 CP2K| Input file name                                                    GW.inp

 GLOBAL| Force Environment number                                              1
 GLOBAL| Basis set file name                                        BASIS_MOLOPT
 GLOBAL| Potential file name                                  GTH_SOC_POTENTIALS
 GLOBAL| MM Potential file name                                     MM_POTENTIAL
 GLOBAL| Coordinate file name                                      __STD_INPUT__
 GLOBAL| Method name                                                        CP2K
 GLOBAL| Project name                                                        hBN
 GLOBAL| Run type                                                         ENERGY
 GLOBAL| FFT library                                                       FFTW3
 GLOBAL| Diagonalization library                                            ELPA
 GLOBAL| Cholesky decomposition library                                ScaLAPACK
 GLOBAL| DGEMM library                                                      BLAS
 GLOBAL| Minimum number of eigenvectors for ELPA usage                        16
 GLOBAL| Orthonormality check for eigenvectors                          DISABLED
 GLOBAL| Matrix multiplication library                                     COSMA
 GLOBAL| All-to-all communication in single precision                          F
 GLOBAL| FFTs using library dependent lengths                                  F
 GLOBAL| Grid backend                                                       AUTO
 GLOBAL| Global print level                                               MEDIUM
 GLOBAL| MPI I/O enabled                                                       T
 GLOBAL| Total number of message passing processes                           128
 GLOBAL| Number of threads for this process                                    8
 GLOBAL| This output is from process                                           0
 GLOBAL| OpenMP stack size per thread (OMP_STACKSIZE)                    default
 GLOBAL| CPU model name                          AMD EPYC 7763 64-Core Processor
 GLOBAL| CPUID                                                              1002

 MEMORY| system memory details [Kb]
 MEMORY|                        rank 0           min           max       average
 MEMORY| MemTotal            263897596     263897564     263897620     263897586
 MEMORY| MemFree             238700568     218952452     243837472     236569342
 MEMORY| Buffers                337188         35392        459088        179195
 MEMORY| Cached               15411196      10641344      30478744      17218021
 MEMORY| Slab                  3143432       2123296       7851280       3316830
 MEMORY| SReclaimable           802088        417832       5653580       1299222
 MEMORY| MemLikelyFree       255251040     254527108     255766032     255265781


 *** Fundamental physical constants (SI units) ***

 *** Literature: B. J. Mohr and B. N. Taylor,
 ***             CODATA recommended values of the fundamental physical
 ***             constants: 2006, Web Version 5.1
 ***             http://physics.nist.gov/constants

 Speed of light in vacuum [m/s]                             2.99792458000000E+08
 Magnetic constant or permeability of vacuum [N/A**2]       1.25663706143592E-06
 Electric constant or permittivity of vacuum [F/m]          8.85418781762039E-12
 Planck constant (h) [J*s]                                  6.62606896000000E-34
 Planck constant (h-bar) [J*s]                              1.05457162825177E-34
 Elementary charge [C]                                      1.60217648700000E-19
 Electron mass [kg]                                         9.10938215000000E-31
 Electron g factor [ ]                                     -2.00231930436220E+00
 Proton mass [kg]                                           1.67262163700000E-27
 Fine-structure constant                                    7.29735253760000E-03
 Rydberg constant [1/m]                                     1.09737315685270E+07
 Avogadro constant [1/mol]                                  6.02214179000000E+23
 Boltzmann constant [J/K]                                   1.38065040000000E-23
 Atomic mass unit [kg]                                      1.66053878200000E-27
 Bohr radius [m]                                            5.29177208590000E-11

 *** Conversion factors ***

 [u] -> [a.u.]                                              1.82288848426455E+03
 [Angstrom] -> [Bohr] = [a.u.]                              1.88972613288564E+00
 [a.u.] = [Bohr] -> [Angstrom]                              5.29177208590000E-01
 [a.u.] -> [s]                                              2.41888432650478E-17
 [a.u.] -> [fs]                                             2.41888432650478E-02
 [a.u.] -> [J]                                              4.35974393937059E-18
 [a.u.] -> [N]                                              8.23872205491840E-08
 [a.u.] -> [K]                                              3.15774647902944E+05
 [a.u.] -> [kJ/mol]                                         2.62549961709828E+03
 [a.u.] -> [kcal/mol]                                       6.27509468713739E+02
 [a.u.] -> [Pa]                                             2.94210107994716E+13
 [a.u.] -> [bar]                                            2.94210107994716E+08
 [a.u.] -> [atm]                                            2.90362800883016E+08
 [a.u.] -> [eV]                                             2.72113838565563E+01
 [a.u.] -> [Hz]                                             6.57968392072181E+15
 [a.u.] -> [1/cm] (wave numbers)                            2.19474631370540E+05
 [a.u./Bohr**2] -> [1/cm]                                   5.14048714338585E+03
 

 CELL_TOP| Volume [angstrom^3]:                                        81.840700
 CELL_TOP| Vector a [angstrom     2.510     0.000     0.000   |a| =     2.510000
 CELL_TOP| Vector b [angstrom    -1.255     2.174     0.000   |b| =     2.510000
 CELL_TOP| Vector c [angstrom     0.000     0.000    15.000   |c| =    15.000000
 CELL_TOP| Angle (b,c), alpha [degree]:                                90.000000
 CELL_TOP| Angle (a,c), beta  [degree]:                                90.000000
 CELL_TOP| Angle (a,b), gamma [degree]:                               120.000000
 CELL_TOP| Numerically orthorhombic:                                          NO
 CELL_TOP| Periodicity                                                        XY

 GENERATE|  Preliminary Number of Bonds generated:                             0
 GENERATE|  Achieved consistency in connectivity generation.

 CELL| Volume [angstrom^3]:                                            81.840700
 CELL| Vector a [angstrom]:       2.510     0.000     0.000   |a| =     2.510000
 CELL| Vector b [angstrom]:      -1.255     2.174     0.000   |b| =     2.510000
 CELL| Vector c [angstrom]:       0.000     0.000    15.000   |c| =    15.000000
 CELL| Angle (b,c), alpha [degree]:                                    90.000000
 CELL| Angle (a,c), beta  [degree]:                                    90.000000
 CELL| Angle (a,b), gamma [degree]:                                   120.000000
 CELL| Numerically orthorhombic:                                              NO
 CELL| Periodicity                                                            XY

 CELL_REF| Volume [angstrom^3]:                                        81.840700
 CELL_REF| Vector a [angstrom     2.510     0.000     0.000   |a| =     2.510000
 CELL_REF| Vector b [angstrom    -1.255     2.174     0.000   |b| =     2.510000
 CELL_REF| Vector c [angstrom     0.000     0.000    15.000   |c| =    15.000000
 CELL_REF| Angle (b,c), alpha [degree]:                                90.000000
 CELL_REF| Angle (a,c), beta  [degree]:                                90.000000
 CELL_REF| Angle (a,b), gamma [degree]:                               120.000000
 CELL_REF| Numerically orthorhombic:                                          NO
 CELL_REF| Periodicity                                                        XY

 *******************************************************************************
                                    Kpoints
 *******************************************************************************
 BRILLOUIN| K-point scheme                                        Monkhorst-Pack
 BRILLOUIN| K-Point grid                                            32   32    1
 BRILLOUIN| Accuracy in Symmetry determination                      0.100000E-05
 BRILLOUIN| K-Point point group symmetrization                               OFF
 BRILLOUIN| Wavefunction type                                            COMPLEX
 BRILLOUIN| List of Kpoints [2 Pi/Bohr]                                      512
 BRILLOUIN| Number           Weight            X              Y              Z
 BRILLOUIN|     1           0.00195       -0.48438       -0.48438        0.00000
 BRILLOUIN|     2           0.00195       -0.48438       -0.45312        0.00000
 BRILLOUIN|     3           0.00195       -0.48438       -0.42188        0.00000
 BRILLOUIN|     4           0.00195       -0.48438       -0.39062        0.00000
 BRILLOUIN|     5           0.00195       -0.48438       -0.35938        0.00000
 BRILLOUIN|     6           0.00195       -0.48438       -0.32812        0.00000
 BRILLOUIN|     7           0.00195       -0.48438       -0.29688        0.00000
 BRILLOUIN|     8           0.00195       -0.48438       -0.26562        0.00000
 BRILLOUIN|     9           0.00195       -0.48438       -0.23438        0.00000
 BRILLOUIN|    10           0.00195       -0.48438       -0.20312        0.00000
 BRILLOUIN|    11           0.00195       -0.48438       -0.17188        0.00000
 BRILLOUIN|    12           0.00195       -0.48438       -0.14062        0.00000
 BRILLOUIN|    13           0.00195       -0.48438       -0.10938        0.00000
 BRILLOUIN|    14           0.00195       -0.48438       -0.07812        0.00000
 BRILLOUIN|    15           0.00195       -0.48438       -0.04688        0.00000
 BRILLOUIN|    16           0.00195       -0.48438       -0.01562        0.00000
 BRILLOUIN|    17           0.00195       -0.48438        0.01562        0.00000
 BRILLOUIN|    18           0.00195       -0.48438        0.04688        0.00000
 BRILLOUIN|    19           0.00195       -0.48438        0.07812        0.00000
 BRILLOUIN|    20           0.00195       -0.48438        0.10938        0.00000
 BRILLOUIN|    21           0.00195       -0.48438        0.14062        0.00000
 BRILLOUIN|    22           0.00195       -0.48438        0.17188        0.00000
 BRILLOUIN|    23           0.00195       -0.48438        0.20312        0.00000
 BRILLOUIN|    24           0.00195       -0.48438        0.23438        0.00000
 BRILLOUIN|    25           0.00195       -0.48438        0.26562        0.00000
 BRILLOUIN|    26           0.00195       -0.48438        0.29688        0.00000
 BRILLOUIN|    27           0.00195       -0.48438        0.32812        0.00000
 BRILLOUIN|    28           0.00195       -0.48438        0.35938        0.00000
 BRILLOUIN|    29           0.00195       -0.48438        0.39062        0.00000
 BRILLOUIN|    30           0.00195       -0.48438        0.42188        0.00000
 BRILLOUIN|    31           0.00195       -0.48438        0.45312        0.00000
 BRILLOUIN|    32           0.00195       -0.48438        0.48438        0.00000
 BRILLOUIN|    33           0.00195       -0.45312       -0.48438        0.00000
 BRILLOUIN|    34           0.00195       -0.45312       -0.45312        0.00000
 BRILLOUIN|    35           0.00195       -0.45312       -0.42188        0.00000
 BRILLOUIN|    36           0.00195       -0.45312       -0.39062        0.00000
 BRILLOUIN|    37           0.00195       -0.45312       -0.35938        0.00000
 BRILLOUIN|    38           0.00195       -0.45312       -0.32812        0.00000
 BRILLOUIN|    39           0.00195       -0.45312       -0.29688        0.00000
 BRILLOUIN|    40           0.00195       -0.45312       -0.26562        0.00000
 BRILLOUIN|    41           0.00195       -0.45312       -0.23438        0.00000
 BRILLOUIN|    42           0.00195       -0.45312       -0.20312        0.00000
 BRILLOUIN|    43           0.00195       -0.45312       -0.17188        0.00000
 BRILLOUIN|    44           0.00195       -0.45312       -0.14062        0.00000
 BRILLOUIN|    45           0.00195       -0.45312       -0.10938        0.00000
 BRILLOUIN|    46           0.00195       -0.45312       -0.07812        0.00000
 BRILLOUIN|    47           0.00195       -0.45312       -0.04688        0.00000
 BRILLOUIN|    48           0.00195       -0.45312       -0.01562        0.00000
 BRILLOUIN|    49           0.00195       -0.45312        0.01562        0.00000
 BRILLOUIN|    50           0.00195       -0.45312        0.04688        0.00000
 BRILLOUIN|    51           0.00195       -0.45312        0.07812        0.00000
 BRILLOUIN|    52           0.00195       -0.45312        0.10938        0.00000
 BRILLOUIN|    53           0.00195       -0.45312        0.14062        0.00000
 BRILLOUIN|    54           0.00195       -0.45312        0.17188        0.00000
 BRILLOUIN|    55           0.00195       -0.45312        0.20312        0.00000
 BRILLOUIN|    56           0.00195       -0.45312        0.23438        0.00000
 BRILLOUIN|    57           0.00195       -0.45312        0.26562        0.00000
 BRILLOUIN|    58           0.00195       -0.45312        0.29688        0.00000
 BRILLOUIN|    59           0.00195       -0.45312        0.32812        0.00000
 BRILLOUIN|    60           0.00195       -0.45312        0.35938        0.00000
 BRILLOUIN|    61           0.00195       -0.45312        0.39062        0.00000
 BRILLOUIN|    62           0.00195       -0.45312        0.42188        0.00000
 BRILLOUIN|    63           0.00195       -0.45312        0.45312        0.00000
 BRILLOUIN|    64           0.00195       -0.45312        0.48438        0.00000
 BRILLOUIN|    65           0.00195       -0.42188       -0.48438        0.00000
 BRILLOUIN|    66           0.00195       -0.42188       -0.45312        0.00000
 BRILLOUIN|    67           0.00195       -0.42188       -0.42188        0.00000
 BRILLOUIN|    68           0.00195       -0.42188       -0.39062        0.00000
 BRILLOUIN|    69           0.00195       -0.42188       -0.35938        0.00000
 BRILLOUIN|    70           0.00195       -0.42188       -0.32812        0.00000
 BRILLOUIN|    71           0.00195       -0.42188       -0.29688        0.00000
 BRILLOUIN|    72           0.00195       -0.42188       -0.26562        0.00000
 BRILLOUIN|    73           0.00195       -0.42188       -0.23438        0.00000
 BRILLOUIN|    74           0.00195       -0.42188       -0.20312        0.00000
 BRILLOUIN|    75           0.00195       -0.42188       -0.17188        0.00000
 BRILLOUIN|    76           0.00195       -0.42188       -0.14062        0.00000
 BRILLOUIN|    77           0.00195       -0.42188       -0.10938        0.00000
 BRILLOUIN|    78           0.00195       -0.42188       -0.07812        0.00000
 BRILLOUIN|    79           0.00195       -0.42188       -0.04688        0.00000
 BRILLOUIN|    80           0.00195       -0.42188       -0.01562        0.00000
 BRILLOUIN|    81           0.00195       -0.42188        0.01562        0.00000
 BRILLOUIN|    82           0.00195       -0.42188        0.04688        0.00000
 BRILLOUIN|    83           0.00195       -0.42188        0.07812        0.00000
 BRILLOUIN|    84           0.00195       -0.42188        0.10938        0.00000
 BRILLOUIN|    85           0.00195       -0.42188        0.14062        0.00000
 BRILLOUIN|    86           0.00195       -0.42188        0.17188        0.00000
 BRILLOUIN|    87           0.00195       -0.42188        0.20312        0.00000
 BRILLOUIN|    88           0.00195       -0.42188        0.23438        0.00000
 BRILLOUIN|    89           0.00195       -0.42188        0.26562        0.00000
 BRILLOUIN|    90           0.00195       -0.42188        0.29688        0.00000
 BRILLOUIN|    91           0.00195       -0.42188        0.32812        0.00000
 BRILLOUIN|    92           0.00195       -0.42188        0.35938        0.00000
 BRILLOUIN|    93           0.00195       -0.42188        0.39062        0.00000
 BRILLOUIN|    94           0.00195       -0.42188        0.42188        0.00000
 BRILLOUIN|    95           0.00195       -0.42188        0.45312        0.00000
 BRILLOUIN|    96           0.00195       -0.42188        0.48438        0.00000
 BRILLOUIN|    97           0.00195       -0.39062       -0.48438        0.00000
 BRILLOUIN|    98           0.00195       -0.39062       -0.45312        0.00000
 BRILLOUIN|    99           0.00195       -0.39062       -0.42188        0.00000
 BRILLOUIN|   100           0.00195       -0.39062       -0.39062        0.00000
 BRILLOUIN|   101           0.00195       -0.39062       -0.35938        0.00000
 BRILLOUIN|   102           0.00195       -0.39062       -0.32812        0.00000
 BRILLOUIN|   103           0.00195       -0.39062       -0.29688        0.00000
 BRILLOUIN|   104           0.00195       -0.39062       -0.26562        0.00000
 BRILLOUIN|   105           0.00195       -0.39062       -0.23438        0.00000
 BRILLOUIN|   106           0.00195       -0.39062       -0.20312        0.00000
 BRILLOUIN|   107           0.00195       -0.39062       -0.17188        0.00000
 BRILLOUIN|   108           0.00195       -0.39062       -0.14062        0.00000
 BRILLOUIN|   109           0.00195       -0.39062       -0.10938        0.00000
 BRILLOUIN|   110           0.00195       -0.39062       -0.07812        0.00000
 BRILLOUIN|   111           0.00195       -0.39062       -0.04688        0.00000
 BRILLOUIN|   112           0.00195       -0.39062       -0.01562        0.00000
 BRILLOUIN|   113           0.00195       -0.39062        0.01562        0.00000
 BRILLOUIN|   114           0.00195       -0.39062        0.04688        0.00000
 BRILLOUIN|   115           0.00195       -0.39062        0.07812        0.00000
 BRILLOUIN|   116           0.00195       -0.39062        0.10938        0.00000
 BRILLOUIN|   117           0.00195       -0.39062        0.14062        0.00000
 BRILLOUIN|   118           0.00195       -0.39062        0.17188        0.00000
 BRILLOUIN|   119           0.00195       -0.39062        0.20312        0.00000
 BRILLOUIN|   120           0.00195       -0.39062        0.23438        0.00000
 BRILLOUIN|   121           0.00195       -0.39062        0.26562        0.00000
 BRILLOUIN|   122           0.00195       -0.39062        0.29688        0.00000
 BRILLOUIN|   123           0.00195       -0.39062        0.32812        0.00000
 BRILLOUIN|   124           0.00195       -0.39062        0.35938        0.00000
 BRILLOUIN|   125           0.00195       -0.39062        0.39062        0.00000
 BRILLOUIN|   126           0.00195       -0.39062        0.42188        0.00000
 BRILLOUIN|   127           0.00195       -0.39062        0.45312        0.00000
 BRILLOUIN|   128           0.00195       -0.39062        0.48438        0.00000
 BRILLOUIN|   129           0.00195       -0.35938       -0.48438        0.00000
 BRILLOUIN|   130           0.00195       -0.35938       -0.45312        0.00000
 BRILLOUIN|   131           0.00195       -0.35938       -0.42188        0.00000
 BRILLOUIN|   132           0.00195       -0.35938       -0.39062        0.00000
 BRILLOUIN|   133           0.00195       -0.35938       -0.35938        0.00000
 BRILLOUIN|   134           0.00195       -0.35938       -0.32812        0.00000
 BRILLOUIN|   135           0.00195       -0.35938       -0.29688        0.00000
 BRILLOUIN|   136           0.00195       -0.35938       -0.26562        0.00000
 BRILLOUIN|   137           0.00195       -0.35938       -0.23438        0.00000
 BRILLOUIN|   138           0.00195       -0.35938       -0.20312        0.00000
 BRILLOUIN|   139           0.00195       -0.35938       -0.17188        0.00000
 BRILLOUIN|   140           0.00195       -0.35938       -0.14062        0.00000
 BRILLOUIN|   141           0.00195       -0.35938       -0.10938        0.00000
 BRILLOUIN|   142           0.00195       -0.35938       -0.07812        0.00000
 BRILLOUIN|   143           0.00195       -0.35938       -0.04688        0.00000
 BRILLOUIN|   144           0.00195       -0.35938       -0.01562        0.00000
 BRILLOUIN|   145           0.00195       -0.35938        0.01562        0.00000
 BRILLOUIN|   146           0.00195       -0.35938        0.04688        0.00000
 BRILLOUIN|   147           0.00195       -0.35938        0.07812        0.00000
 BRILLOUIN|   148           0.00195       -0.35938        0.10938        0.00000
 BRILLOUIN|   149           0.00195       -0.35938        0.14062        0.00000
 BRILLOUIN|   150           0.00195       -0.35938        0.17188        0.00000
 BRILLOUIN|   151           0.00195       -0.35938        0.20312        0.00000
 BRILLOUIN|   152           0.00195       -0.35938        0.23438        0.00000
 BRILLOUIN|   153           0.00195       -0.35938        0.26562        0.00000
 BRILLOUIN|   154           0.00195       -0.35938        0.29688        0.00000
 BRILLOUIN|   155           0.00195       -0.35938        0.32812        0.00000
 BRILLOUIN|   156           0.00195       -0.35938        0.35938        0.00000
 BRILLOUIN|   157           0.00195       -0.35938        0.39062        0.00000
 BRILLOUIN|   158           0.00195       -0.35938        0.42188        0.00000
 BRILLOUIN|   159           0.00195       -0.35938        0.45312        0.00000
 BRILLOUIN|   160           0.00195       -0.35938        0.48438        0.00000
 BRILLOUIN|   161           0.00195       -0.32812       -0.48438        0.00000
 BRILLOUIN|   162           0.00195       -0.32812       -0.45312        0.00000
 BRILLOUIN|   163           0.00195       -0.32812       -0.42188        0.00000
 BRILLOUIN|   164           0.00195       -0.32812       -0.39062        0.00000
 BRILLOUIN|   165           0.00195       -0.32812       -0.35938        0.00000
 BRILLOUIN|   166           0.00195       -0.32812       -0.32812        0.00000
 BRILLOUIN|   167           0.00195       -0.32812       -0.29688        0.00000
 BRILLOUIN|   168           0.00195       -0.32812       -0.26562        0.00000
 BRILLOUIN|   169           0.00195       -0.32812       -0.23438        0.00000
 BRILLOUIN|   170           0.00195       -0.32812       -0.20312        0.00000
 BRILLOUIN|   171           0.00195       -0.32812       -0.17188        0.00000
 BRILLOUIN|   172           0.00195       -0.32812       -0.14062        0.00000
 BRILLOUIN|   173           0.00195       -0.32812       -0.10938        0.00000
 BRILLOUIN|   174           0.00195       -0.32812       -0.07812        0.00000
 BRILLOUIN|   175           0.00195       -0.32812       -0.04688        0.00000
 BRILLOUIN|   176           0.00195       -0.32812       -0.01562        0.00000
 BRILLOUIN|   177           0.00195       -0.32812        0.01562        0.00000
 BRILLOUIN|   178           0.00195       -0.32812        0.04688        0.00000
 BRILLOUIN|   179           0.00195       -0.32812        0.07812        0.00000
 BRILLOUIN|   180           0.00195       -0.32812        0.10938        0.00000
 BRILLOUIN|   181           0.00195       -0.32812        0.14062        0.00000
 BRILLOUIN|   182           0.00195       -0.32812        0.17188        0.00000
 BRILLOUIN|   183           0.00195       -0.32812        0.20312        0.00000
 BRILLOUIN|   184           0.00195       -0.32812        0.23438        0.00000
 BRILLOUIN|   185           0.00195       -0.32812        0.26562        0.00000
 BRILLOUIN|   186           0.00195       -0.32812        0.29688        0.00000
 BRILLOUIN|   187           0.00195       -0.32812        0.32812        0.00000
 BRILLOUIN|   188           0.00195       -0.32812        0.35938        0.00000
 BRILLOUIN|   189           0.00195       -0.32812        0.39062        0.00000
 BRILLOUIN|   190           0.00195       -0.32812        0.42188        0.00000
 BRILLOUIN|   191           0.00195       -0.32812        0.45312        0.00000
 BRILLOUIN|   192           0.00195       -0.32812        0.48438        0.00000
 BRILLOUIN|   193           0.00195       -0.29688       -0.48438        0.00000
 BRILLOUIN|   194           0.00195       -0.29688       -0.45312        0.00000
 BRILLOUIN|   195           0.00195       -0.29688       -0.42188        0.00000
 BRILLOUIN|   196           0.00195       -0.29688       -0.39062        0.00000
 BRILLOUIN|   197           0.00195       -0.29688       -0.35938        0.00000
 BRILLOUIN|   198           0.00195       -0.29688       -0.32812        0.00000
 BRILLOUIN|   199           0.00195       -0.29688       -0.29688        0.00000
 BRILLOUIN|   200           0.00195       -0.29688       -0.26562        0.00000
 BRILLOUIN|   201           0.00195       -0.29688       -0.23438        0.00000
 BRILLOUIN|   202           0.00195       -0.29688       -0.20312        0.00000
 BRILLOUIN|   203           0.00195       -0.29688       -0.17188        0.00000
 BRILLOUIN|   204           0.00195       -0.29688       -0.14062        0.00000
 BRILLOUIN|   205           0.00195       -0.29688       -0.10938        0.00000
 BRILLOUIN|   206           0.00195       -0.29688       -0.07812        0.00000
 BRILLOUIN|   207           0.00195       -0.29688       -0.04688        0.00000
 BRILLOUIN|   208           0.00195       -0.29688       -0.01562        0.00000
 BRILLOUIN|   209           0.00195       -0.29688        0.01562        0.00000
 BRILLOUIN|   210           0.00195       -0.29688        0.04688        0.00000
 BRILLOUIN|   211           0.00195       -0.29688        0.07812        0.00000
 BRILLOUIN|   212           0.00195       -0.29688        0.10938        0.00000
 BRILLOUIN|   213           0.00195       -0.29688        0.14062        0.00000
 BRILLOUIN|   214           0.00195       -0.29688        0.17188        0.00000
 BRILLOUIN|   215           0.00195       -0.29688        0.20312        0.00000
 BRILLOUIN|   216           0.00195       -0.29688        0.23438        0.00000
 BRILLOUIN|   217           0.00195       -0.29688        0.26562        0.00000
 BRILLOUIN|   218           0.00195       -0.29688        0.29688        0.00000
 BRILLOUIN|   219           0.00195       -0.29688        0.32812        0.00000
 BRILLOUIN|   220           0.00195       -0.29688        0.35938        0.00000
 BRILLOUIN|   221           0.00195       -0.29688        0.39062        0.00000
 BRILLOUIN|   222           0.00195       -0.29688        0.42188        0.00000
 BRILLOUIN|   223           0.00195       -0.29688        0.45312        0.00000
 BRILLOUIN|   224           0.00195       -0.29688        0.48438        0.00000
 BRILLOUIN|   225           0.00195       -0.26562       -0.48438        0.00000
 BRILLOUIN|   226           0.00195       -0.26562       -0.45312        0.00000
 BRILLOUIN|   227           0.00195       -0.26562       -0.42188        0.00000
 BRILLOUIN|   228           0.00195       -0.26562       -0.39062        0.00000
 BRILLOUIN|   229           0.00195       -0.26562       -0.35938        0.00000
 BRILLOUIN|   230           0.00195       -0.26562       -0.32812        0.00000
 BRILLOUIN|   231           0.00195       -0.26562       -0.29688        0.00000
 BRILLOUIN|   232           0.00195       -0.26562       -0.26562        0.00000
 BRILLOUIN|   233           0.00195       -0.26562       -0.23438        0.00000
 BRILLOUIN|   234           0.00195       -0.26562       -0.20312        0.00000
 BRILLOUIN|   235           0.00195       -0.26562       -0.17188        0.00000
 BRILLOUIN|   236           0.00195       -0.26562       -0.14062        0.00000
 BRILLOUIN|   237           0.00195       -0.26562       -0.10938        0.00000
 BRILLOUIN|   238           0.00195       -0.26562       -0.07812        0.00000
 BRILLOUIN|   239           0.00195       -0.26562       -0.04688        0.00000
 BRILLOUIN|   240           0.00195       -0.26562       -0.01562        0.00000
 BRILLOUIN|   241           0.00195       -0.26562        0.01562        0.00000
 BRILLOUIN|   242           0.00195       -0.26562        0.04688        0.00000
 BRILLOUIN|   243           0.00195       -0.26562        0.07812        0.00000
 BRILLOUIN|   244           0.00195       -0.26562        0.10938        0.00000
 BRILLOUIN|   245           0.00195       -0.26562        0.14062        0.00000
 BRILLOUIN|   246           0.00195       -0.26562        0.17188        0.00000
 BRILLOUIN|   247           0.00195       -0.26562        0.20312        0.00000
 BRILLOUIN|   248           0.00195       -0.26562        0.23438        0.00000
 BRILLOUIN|   249           0.00195       -0.26562        0.26562        0.00000
 BRILLOUIN|   250           0.00195       -0.26562        0.29688        0.00000
 BRILLOUIN|   251           0.00195       -0.26562        0.32812        0.00000
 BRILLOUIN|   252           0.00195       -0.26562        0.35938        0.00000
 BRILLOUIN|   253           0.00195       -0.26562        0.39062        0.00000
 BRILLOUIN|   254           0.00195       -0.26562        0.42188        0.00000
 BRILLOUIN|   255           0.00195       -0.26562        0.45312        0.00000
 BRILLOUIN|   256           0.00195       -0.26562        0.48438        0.00000
 BRILLOUIN|   257           0.00195       -0.23438       -0.48438        0.00000
 BRILLOUIN|   258           0.00195       -0.23438       -0.45312        0.00000
 BRILLOUIN|   259           0.00195       -0.23438       -0.42188        0.00000
 BRILLOUIN|   260           0.00195       -0.23438       -0.39062        0.00000
 BRILLOUIN|   261           0.00195       -0.23438       -0.35938        0.00000
 BRILLOUIN|   262           0.00195       -0.23438       -0.32812        0.00000
 BRILLOUIN|   263           0.00195       -0.23438       -0.29688        0.00000
 BRILLOUIN|   264           0.00195       -0.23438       -0.26562        0.00000
 BRILLOUIN|   265           0.00195       -0.23438       -0.23438        0.00000
 BRILLOUIN|   266           0.00195       -0.23438       -0.20312        0.00000
 BRILLOUIN|   267           0.00195       -0.23438       -0.17188        0.00000
 BRILLOUIN|   268           0.00195       -0.23438       -0.14062        0.00000
 BRILLOUIN|   269           0.00195       -0.23438       -0.10938        0.00000
 BRILLOUIN|   270           0.00195       -0.23438       -0.07812        0.00000
 BRILLOUIN|   271           0.00195       -0.23438       -0.04688        0.00000
 BRILLOUIN|   272           0.00195       -0.23438       -0.01562        0.00000
 BRILLOUIN|   273           0.00195       -0.23438        0.01562        0.00000
 BRILLOUIN|   274           0.00195       -0.23438        0.04688        0.00000
 BRILLOUIN|   275           0.00195       -0.23438        0.07812        0.00000
 BRILLOUIN|   276           0.00195       -0.23438        0.10938        0.00000
 BRILLOUIN|   277           0.00195       -0.23438        0.14062        0.00000
 BRILLOUIN|   278           0.00195       -0.23438        0.17188        0.00000
 BRILLOUIN|   279           0.00195       -0.23438        0.20312        0.00000
 BRILLOUIN|   280           0.00195       -0.23438        0.23438        0.00000
 BRILLOUIN|   281           0.00195       -0.23438        0.26562        0.00000
 BRILLOUIN|   282           0.00195       -0.23438        0.29688        0.00000
 BRILLOUIN|   283           0.00195       -0.23438        0.32812        0.00000
 BRILLOUIN|   284           0.00195       -0.23438        0.35938        0.00000
 BRILLOUIN|   285           0.00195       -0.23438        0.39062        0.00000
 BRILLOUIN|   286           0.00195       -0.23438        0.42188        0.00000
 BRILLOUIN|   287           0.00195       -0.23438        0.45312        0.00000
 BRILLOUIN|   288           0.00195       -0.23438        0.48438        0.00000
 BRILLOUIN|   289           0.00195       -0.20312       -0.48438        0.00000
 BRILLOUIN|   290           0.00195       -0.20312       -0.45312        0.00000
 BRILLOUIN|   291           0.00195       -0.20312       -0.42188        0.00000
 BRILLOUIN|   292           0.00195       -0.20312       -0.39062        0.00000
 BRILLOUIN|   293           0.00195       -0.20312       -0.35938        0.00000
 BRILLOUIN|   294           0.00195       -0.20312       -0.32812        0.00000
 BRILLOUIN|   295           0.00195       -0.20312       -0.29688        0.00000
 BRILLOUIN|   296           0.00195       -0.20312       -0.26562        0.00000
 BRILLOUIN|   297           0.00195       -0.20312       -0.23438        0.00000
 BRILLOUIN|   298           0.00195       -0.20312       -0.20312        0.00000
 BRILLOUIN|   299           0.00195       -0.20312       -0.17188        0.00000
 BRILLOUIN|   300           0.00195       -0.20312       -0.14062        0.00000
 BRILLOUIN|   301           0.00195       -0.20312       -0.10938        0.00000
 BRILLOUIN|   302           0.00195       -0.20312       -0.07812        0.00000
 BRILLOUIN|   303           0.00195       -0.20312       -0.04688        0.00000
 BRILLOUIN|   304           0.00195       -0.20312       -0.01562        0.00000
 BRILLOUIN|   305           0.00195       -0.20312        0.01562        0.00000
 BRILLOUIN|   306           0.00195       -0.20312        0.04688        0.00000
 BRILLOUIN|   307           0.00195       -0.20312        0.07812        0.00000
 BRILLOUIN|   308           0.00195       -0.20312        0.10938        0.00000
 BRILLOUIN|   309           0.00195       -0.20312        0.14062        0.00000
 BRILLOUIN|   310           0.00195       -0.20312        0.17188        0.00000
 BRILLOUIN|   311           0.00195       -0.20312        0.20312        0.00000
 BRILLOUIN|   312           0.00195       -0.20312        0.23438        0.00000
 BRILLOUIN|   313           0.00195       -0.20312        0.26562        0.00000
 BRILLOUIN|   314           0.00195       -0.20312        0.29688        0.00000
 BRILLOUIN|   315           0.00195       -0.20312        0.32812        0.00000
 BRILLOUIN|   316           0.00195       -0.20312        0.35938        0.00000
 BRILLOUIN|   317           0.00195       -0.20312        0.39062        0.00000
 BRILLOUIN|   318           0.00195       -0.20312        0.42188        0.00000
 BRILLOUIN|   319           0.00195       -0.20312        0.45312        0.00000
 BRILLOUIN|   320           0.00195       -0.20312        0.48438        0.00000
 BRILLOUIN|   321           0.00195       -0.17188       -0.48438        0.00000
 BRILLOUIN|   322           0.00195       -0.17188       -0.45312        0.00000
 BRILLOUIN|   323           0.00195       -0.17188       -0.42188        0.00000
 BRILLOUIN|   324           0.00195       -0.17188       -0.39062        0.00000
 BRILLOUIN|   325           0.00195       -0.17188       -0.35938        0.00000
 BRILLOUIN|   326           0.00195       -0.17188       -0.32812        0.00000
 BRILLOUIN|   327           0.00195       -0.17188       -0.29688        0.00000
 BRILLOUIN|   328           0.00195       -0.17188       -0.26562        0.00000
 BRILLOUIN|   329           0.00195       -0.17188       -0.23438        0.00000
 BRILLOUIN|   330           0.00195       -0.17188       -0.20312        0.00000
 BRILLOUIN|   331           0.00195       -0.17188       -0.17188        0.00000
 BRILLOUIN|   332           0.00195       -0.17188       -0.14062        0.00000
 BRILLOUIN|   333           0.00195       -0.17188       -0.10938        0.00000
 BRILLOUIN|   334           0.00195       -0.17188       -0.07812        0.00000
 BRILLOUIN|   335           0.00195       -0.17188       -0.04688        0.00000
 BRILLOUIN|   336           0.00195       -0.17188       -0.01562        0.00000
 BRILLOUIN|   337           0.00195       -0.17188        0.01562        0.00000
 BRILLOUIN|   338           0.00195       -0.17188        0.04688        0.00000
 BRILLOUIN|   339           0.00195       -0.17188        0.07812        0.00000
 BRILLOUIN|   340           0.00195       -0.17188        0.10938        0.00000
 BRILLOUIN|   341           0.00195       -0.17188        0.14062        0.00000
 BRILLOUIN|   342           0.00195       -0.17188        0.17188        0.00000
 BRILLOUIN|   343           0.00195       -0.17188        0.20312        0.00000
 BRILLOUIN|   344           0.00195       -0.17188        0.23438        0.00000
 BRILLOUIN|   345           0.00195       -0.17188        0.26562        0.00000
 BRILLOUIN|   346           0.00195       -0.17188        0.29688        0.00000
 BRILLOUIN|   347           0.00195       -0.17188        0.32812        0.00000
 BRILLOUIN|   348           0.00195       -0.17188        0.35938        0.00000
 BRILLOUIN|   349           0.00195       -0.17188        0.39062        0.00000
 BRILLOUIN|   350           0.00195       -0.17188        0.42188        0.00000
 BRILLOUIN|   351           0.00195       -0.17188        0.45312        0.00000
 BRILLOUIN|   352           0.00195       -0.17188        0.48438        0.00000
 BRILLOUIN|   353           0.00195       -0.14062       -0.48438        0.00000
 BRILLOUIN|   354           0.00195       -0.14062       -0.45312        0.00000
 BRILLOUIN|   355           0.00195       -0.14062       -0.42188        0.00000
 BRILLOUIN|   356           0.00195       -0.14062       -0.39062        0.00000
 BRILLOUIN|   357           0.00195       -0.14062       -0.35938        0.00000
 BRILLOUIN|   358           0.00195       -0.14062       -0.32812        0.00000
 BRILLOUIN|   359           0.00195       -0.14062       -0.29688        0.00000
 BRILLOUIN|   360           0.00195       -0.14062       -0.26562        0.00000
 BRILLOUIN|   361           0.00195       -0.14062       -0.23438        0.00000
 BRILLOUIN|   362           0.00195       -0.14062       -0.20312        0.00000
 BRILLOUIN|   363           0.00195       -0.14062       -0.17188        0.00000
 BRILLOUIN|   364           0.00195       -0.14062       -0.14062        0.00000
 BRILLOUIN|   365           0.00195       -0.14062       -0.10938        0.00000
 BRILLOUIN|   366           0.00195       -0.14062       -0.07812        0.00000
 BRILLOUIN|   367           0.00195       -0.14062       -0.04688        0.00000
 BRILLOUIN|   368           0.00195       -0.14062       -0.01562        0.00000
 BRILLOUIN|   369           0.00195       -0.14062        0.01562        0.00000
 BRILLOUIN|   370           0.00195       -0.14062        0.04688        0.00000
 BRILLOUIN|   371           0.00195       -0.14062        0.07812        0.00000
 BRILLOUIN|   372           0.00195       -0.14062        0.10938        0.00000
 BRILLOUIN|   373           0.00195       -0.14062        0.14062        0.00000
 BRILLOUIN|   374           0.00195       -0.14062        0.17188        0.00000
 BRILLOUIN|   375           0.00195       -0.14062        0.20312        0.00000
 BRILLOUIN|   376           0.00195       -0.14062        0.23438        0.00000
 BRILLOUIN|   377           0.00195       -0.14062        0.26562        0.00000
 BRILLOUIN|   378           0.00195       -0.14062        0.29688        0.00000
 BRILLOUIN|   379           0.00195       -0.14062        0.32812        0.00000
 BRILLOUIN|   380           0.00195       -0.14062        0.35938        0.00000
 BRILLOUIN|   381           0.00195       -0.14062        0.39062        0.00000
 BRILLOUIN|   382           0.00195       -0.14062        0.42188        0.00000
 BRILLOUIN|   383           0.00195       -0.14062        0.45312        0.00000
 BRILLOUIN|   384           0.00195       -0.14062        0.48438        0.00000
 BRILLOUIN|   385           0.00195       -0.10938       -0.48438        0.00000
 BRILLOUIN|   386           0.00195       -0.10938       -0.45312        0.00000
 BRILLOUIN|   387           0.00195       -0.10938       -0.42188        0.00000
 BRILLOUIN|   388           0.00195       -0.10938       -0.39062        0.00000
 BRILLOUIN|   389           0.00195       -0.10938       -0.35938        0.00000
 BRILLOUIN|   390           0.00195       -0.10938       -0.32812        0.00000
 BRILLOUIN|   391           0.00195       -0.10938       -0.29688        0.00000
 BRILLOUIN|   392           0.00195       -0.10938       -0.26562        0.00000
 BRILLOUIN|   393           0.00195       -0.10938       -0.23438        0.00000
 BRILLOUIN|   394           0.00195       -0.10938       -0.20312        0.00000
 BRILLOUIN|   395           0.00195       -0.10938       -0.17188        0.00000
 BRILLOUIN|   396           0.00195       -0.10938       -0.14062        0.00000
 BRILLOUIN|   397           0.00195       -0.10938       -0.10938        0.00000
 BRILLOUIN|   398           0.00195       -0.10938       -0.07812        0.00000
 BRILLOUIN|   399           0.00195       -0.10938       -0.04688        0.00000
 BRILLOUIN|   400           0.00195       -0.10938       -0.01562        0.00000
 BRILLOUIN|   401           0.00195       -0.10938        0.01562        0.00000
 BRILLOUIN|   402           0.00195       -0.10938        0.04688        0.00000
 BRILLOUIN|   403           0.00195       -0.10938        0.07812        0.00000
 BRILLOUIN|   404           0.00195       -0.10938        0.10938        0.00000
 BRILLOUIN|   405           0.00195       -0.10938        0.14062        0.00000
 BRILLOUIN|   406           0.00195       -0.10938        0.17188        0.00000
 BRILLOUIN|   407           0.00195       -0.10938        0.20312        0.00000
 BRILLOUIN|   408           0.00195       -0.10938        0.23438        0.00000
 BRILLOUIN|   409           0.00195       -0.10938        0.26562        0.00000
 BRILLOUIN|   410           0.00195       -0.10938        0.29688        0.00000
 BRILLOUIN|   411           0.00195       -0.10938        0.32812        0.00000
 BRILLOUIN|   412           0.00195       -0.10938        0.35938        0.00000
 BRILLOUIN|   413           0.00195       -0.10938        0.39062        0.00000
 BRILLOUIN|   414           0.00195       -0.10938        0.42188        0.00000
 BRILLOUIN|   415           0.00195       -0.10938        0.45312        0.00000
 BRILLOUIN|   416           0.00195       -0.10938        0.48438        0.00000
 BRILLOUIN|   417           0.00195       -0.07812       -0.48438        0.00000
 BRILLOUIN|   418           0.00195       -0.07812       -0.45312        0.00000
 BRILLOUIN|   419           0.00195       -0.07812       -0.42188        0.00000
 BRILLOUIN|   420           0.00195       -0.07812       -0.39062        0.00000
 BRILLOUIN|   421           0.00195       -0.07812       -0.35938        0.00000
 BRILLOUIN|   422           0.00195       -0.07812       -0.32812        0.00000
 BRILLOUIN|   423           0.00195       -0.07812       -0.29688        0.00000
 BRILLOUIN|   424           0.00195       -0.07812       -0.26562        0.00000
 BRILLOUIN|   425           0.00195       -0.07812       -0.23438        0.00000
 BRILLOUIN|   426           0.00195       -0.07812       -0.20312        0.00000
 BRILLOUIN|   427           0.00195       -0.07812       -0.17188        0.00000
 BRILLOUIN|   428           0.00195       -0.07812       -0.14062        0.00000
 BRILLOUIN|   429           0.00195       -0.07812       -0.10938        0.00000
 BRILLOUIN|   430           0.00195       -0.07812       -0.07812        0.00000
 BRILLOUIN|   431           0.00195       -0.07812       -0.04688        0.00000
 BRILLOUIN|   432           0.00195       -0.07812       -0.01562        0.00000
 BRILLOUIN|   433           0.00195       -0.07812        0.01562        0.00000
 BRILLOUIN|   434           0.00195       -0.07812        0.04688        0.00000
 BRILLOUIN|   435           0.00195       -0.07812        0.07812        0.00000
 BRILLOUIN|   436           0.00195       -0.07812        0.10938        0.00000
 BRILLOUIN|   437           0.00195       -0.07812        0.14062        0.00000
 BRILLOUIN|   438           0.00195       -0.07812        0.17188        0.00000
 BRILLOUIN|   439           0.00195       -0.07812        0.20312        0.00000
 BRILLOUIN|   440           0.00195       -0.07812        0.23438        0.00000
 BRILLOUIN|   441           0.00195       -0.07812        0.26562        0.00000
 BRILLOUIN|   442           0.00195       -0.07812        0.29688        0.00000
 BRILLOUIN|   443           0.00195       -0.07812        0.32812        0.00000
 BRILLOUIN|   444           0.00195       -0.07812        0.35938        0.00000
 BRILLOUIN|   445           0.00195       -0.07812        0.39062        0.00000
 BRILLOUIN|   446           0.00195       -0.07812        0.42188        0.00000
 BRILLOUIN|   447           0.00195       -0.07812        0.45312        0.00000
 BRILLOUIN|   448           0.00195       -0.07812        0.48438        0.00000
 BRILLOUIN|   449           0.00195       -0.04688       -0.48438        0.00000
 BRILLOUIN|   450           0.00195       -0.04688       -0.45312        0.00000
 BRILLOUIN|   451           0.00195       -0.04688       -0.42188        0.00000
 BRILLOUIN|   452           0.00195       -0.04688       -0.39062        0.00000
 BRILLOUIN|   453           0.00195       -0.04688       -0.35938        0.00000
 BRILLOUIN|   454           0.00195       -0.04688       -0.32812        0.00000
 BRILLOUIN|   455           0.00195       -0.04688       -0.29688        0.00000
 BRILLOUIN|   456           0.00195       -0.04688       -0.26562        0.00000
 BRILLOUIN|   457           0.00195       -0.04688       -0.23438        0.00000
 BRILLOUIN|   458           0.00195       -0.04688       -0.20312        0.00000
 BRILLOUIN|   459           0.00195       -0.04688       -0.17188        0.00000
 BRILLOUIN|   460           0.00195       -0.04688       -0.14062        0.00000
 BRILLOUIN|   461           0.00195       -0.04688       -0.10938        0.00000
 BRILLOUIN|   462           0.00195       -0.04688       -0.07812        0.00000
 BRILLOUIN|   463           0.00195       -0.04688       -0.04688        0.00000
 BRILLOUIN|   464           0.00195       -0.04688       -0.01562        0.00000
 BRILLOUIN|   465           0.00195       -0.04688        0.01562        0.00000
 BRILLOUIN|   466           0.00195       -0.04688        0.04688        0.00000
 BRILLOUIN|   467           0.00195       -0.04688        0.07812        0.00000
 BRILLOUIN|   468           0.00195       -0.04688        0.10938        0.00000
 BRILLOUIN|   469           0.00195       -0.04688        0.14062        0.00000
 BRILLOUIN|   470           0.00195       -0.04688        0.17188        0.00000
 BRILLOUIN|   471           0.00195       -0.04688        0.20312        0.00000
 BRILLOUIN|   472           0.00195       -0.04688        0.23438        0.00000
 BRILLOUIN|   473           0.00195       -0.04688        0.26562        0.00000
 BRILLOUIN|   474           0.00195       -0.04688        0.29688        0.00000
 BRILLOUIN|   475           0.00195       -0.04688        0.32812        0.00000
 BRILLOUIN|   476           0.00195       -0.04688        0.35938        0.00000
 BRILLOUIN|   477           0.00195       -0.04688        0.39062        0.00000
 BRILLOUIN|   478           0.00195       -0.04688        0.42188        0.00000
 BRILLOUIN|   479           0.00195       -0.04688        0.45312        0.00000
 BRILLOUIN|   480           0.00195       -0.04688        0.48438        0.00000
 BRILLOUIN|   481           0.00195       -0.01562       -0.48438        0.00000
 BRILLOUIN|   482           0.00195       -0.01562       -0.45312        0.00000
 BRILLOUIN|   483           0.00195       -0.01562       -0.42188        0.00000
 BRILLOUIN|   484           0.00195       -0.01562       -0.39062        0.00000
 BRILLOUIN|   485           0.00195       -0.01562       -0.35938        0.00000
 BRILLOUIN|   486           0.00195       -0.01562       -0.32812        0.00000
 BRILLOUIN|   487           0.00195       -0.01562       -0.29688        0.00000
 BRILLOUIN|   488           0.00195       -0.01562       -0.26562        0.00000
 BRILLOUIN|   489           0.00195       -0.01562       -0.23438        0.00000
 BRILLOUIN|   490           0.00195       -0.01562       -0.20312        0.00000
 BRILLOUIN|   491           0.00195       -0.01562       -0.17188        0.00000
 BRILLOUIN|   492           0.00195       -0.01562       -0.14062        0.00000
 BRILLOUIN|   493           0.00195       -0.01562       -0.10938        0.00000
 BRILLOUIN|   494           0.00195       -0.01562       -0.07812        0.00000
 BRILLOUIN|   495           0.00195       -0.01562       -0.04688        0.00000
 BRILLOUIN|   496           0.00195       -0.01562       -0.01562        0.00000
 BRILLOUIN|   497           0.00195       -0.01562        0.01562        0.00000
 BRILLOUIN|   498           0.00195       -0.01562        0.04688        0.00000
 BRILLOUIN|   499           0.00195       -0.01562        0.07812        0.00000
 BRILLOUIN|   500           0.00195       -0.01562        0.10938        0.00000
 BRILLOUIN|   501           0.00195       -0.01562        0.14062        0.00000
 BRILLOUIN|   502           0.00195       -0.01562        0.17188        0.00000
 BRILLOUIN|   503           0.00195       -0.01562        0.20312        0.00000
 BRILLOUIN|   504           0.00195       -0.01562        0.23438        0.00000
 BRILLOUIN|   505           0.00195       -0.01562        0.26562        0.00000
 BRILLOUIN|   506           0.00195       -0.01562        0.29688        0.00000
 BRILLOUIN|   507           0.00195       -0.01562        0.32812        0.00000
 BRILLOUIN|   508           0.00195       -0.01562        0.35938        0.00000
 BRILLOUIN|   509           0.00195       -0.01562        0.39062        0.00000
 BRILLOUIN|   510           0.00195       -0.01562        0.42188        0.00000
 BRILLOUIN|   511           0.00195       -0.01562        0.45312        0.00000
 BRILLOUIN|   512           0.00195       -0.01562        0.48438        0.00000
 *******************************************************************************

 *******************************************************************************
 *******************************************************************************
 **                                                                           **
 **     #####                         ##              ##                      **
 **    ##   ##            ##          ##              ##                      **
 **   ##     ##                       ##            ######                    **
 **   ##     ##  ##   ##  ##   #####  ##  ##   ####   ##    #####    #####    **
 **   ##     ##  ##   ##  ##  ##      ## ##   ##      ##   ##   ##  ##   ##   **
 **   ##  ## ##  ##   ##  ##  ##      ####     ###    ##   ######   ######    **
 **    ##  ###   ##   ##  ##  ##      ## ##      ##   ##   ##       ##        **
 **     #######   #####   ##   #####  ##  ##  ####    ##    #####   ##        **
 **           ##                                                    ##        **
 **                                                                           **
 **                                                ... make the atoms dance   **
 **                                                                           **
 **            Copyright (C) by CP2K developers group (2000-2025)             **
 **                      J. Chem. Phys. 152, 194103 (2020)                    **
 **                                                                           **
 *******************************************************************************

 DFT| Spin restricted Kohn-Sham (RKS) calculation                            RKS
 DFT| Multiplicity                                                             1
 DFT| Number of spin states                                                    1
 DFT| Charge                                                                   0
 DFT| Self-interaction correction (SIC)                                       NO
 DFT| Cutoffs: density                                              1.000000E-10
 DFT|          gradient                                             1.000000E-10
 DFT|          tau                                                  1.000000E-10
 DFT|          cutoff_smoothing_range                               0.000000E+00
 DFT| XC density smoothing                                                  NONE
 DFT| XC derivatives                                                          PW

 FUNCTIONAL| PBE:
 FUNCTIONAL| J.P.Perdew, K.Burke, M.Ernzerhof, Phys. Rev. Letter, vol. 77, n 18,
 FUNCTIONAL|  pp. 3865-3868, (1996) {spin unpolarized}                          


 QS| Method:                                                                GAPW
 QS| Density plane wave grid type                        NON-SPHERICAL FULLSPACE
 QS| Number of grid levels:                                                    4
 QS| Density cutoff [a.u.]:                                                250.0
 QS| Multi grid cutoff [a.u.]: 1) grid level                               250.0
 QS|                           2) grid level                                83.3
 QS|                           3) grid level                                27.8
 QS|                           4) grid level                                 9.3
 QS| Grid level progression factor:                                          3.0
 QS| Relative density cutoff [a.u.]:                                        50.0
 QS| Interaction thresholds: eps_pgf_orb:                                1.0E-12
 QS|                         eps_filter_matrix:                          0.0E+00
 QS|                         eps_core_charge:                            1.0E-14
 QS|                         eps_rho_gspace:                             1.0E-12
 QS|                         eps_rho_rspace:                             1.0E-12
 QS|                         eps_gvg_rspace:                             1.0E-06
 QS|                         eps_ppl:                                    1.0E-02
 QS|                         eps_ppnl:                                   1.0E-08
 QS| GAPW|      One center basis from orbital basis primitives
 QS| GAPW|                   eps_fit:                                    1.0E-04
 QS| GAPW|                   eps_iso:                                    1.0E-12
 QS| GAPW|                   eps_svd:                                    1.0E-08
 QS| GAPW|                   eps_cpc:                                    1.0E-12
 QS| GAPW|   atom-r-grid: quadrature:                                     GC_LOG
 QS| GAPW|      atom-s-grid:  max l :                                          4
 QS| GAPW|      max_l_rho0 :                                                   2
 QS| GAPW|      At least one kind is NOT PAW, i.e. it has only soft AO 
 QS| GAPW|      The NOT PAW atoms are treated fully GPW


 ATOMIC KIND INFORMATION

  1. Atomic kind: B                                     Number of atoms:       1

     Orbital Basis Set                                    DZVP-MOLOPT-PBE-GTH-q3

       Number of orbital shell sets:                                           1
       Number of orbital shells:                                               5
       Number of primitive Cartesian functions:                                5
       Number of Cartesian basis functions:                                   14
       Number of spherical basis functions:                                   13
       Norm type:                                                              2

       Normalised Cartesian orbitals:

                        Set   Shell   Orbital            Exponent    Coefficient

                          1       1    2s                3.575233      -0.251277
                                                         1.347699      -0.198106
                                                         0.614553       0.172878
                                                         0.253523       0.151700
                                                         0.085137       0.035450

                          1       2    3s                3.575233       0.549636
                                                         1.347699       0.196373
                                                         0.614553      -0.255207
                                                         0.253523      -0.051628
                                                         0.085137       0.138907

                          1       3    3px               3.575233      -0.379954
                                                         1.347699      -0.232253
                                                         0.614553      -0.197045
                                                         0.253523      -0.107441
                                                         0.085137      -0.025250
                          1       3    3py               3.575233      -0.379954
                                                         1.347699      -0.232253
                                                         0.614553      -0.197045
                                                         0.253523      -0.107441
                                                         0.085137      -0.025250
                          1       3    3pz               3.575233      -0.379954
                                                         1.347699      -0.232253
                                                         0.614553      -0.197045
                                                         0.253523      -0.107441
                                                         0.085137      -0.025250

                          1       4    4px               3.575233       0.795891
                                                         1.347699       0.510277
                                                         0.614553       0.370808
                                                         0.253523       0.096082
                                                         0.085137      -0.053145
                          1       4    4py               3.575233       0.795891
                                                         1.347699       0.510277
                                                         0.614553       0.370808
                                                         0.253523       0.096082
                                                         0.085137      -0.053145
                          1       4    4pz               3.575233       0.795891
                                                         1.347699       0.510277
                                                         0.614553       0.370808
                                                         0.253523       0.096082
                                                         0.085137      -0.053145

                          1       5    4dx2              3.575233      -0.146757
                                                         1.347699       0.616788
                                                         0.614553       0.145475
                                                         0.253523       0.099150
                                                         0.085137       0.002211
                          1       5    4dxy              3.575233      -0.254191
                                                         1.347699       1.068308
                                                         0.614553       0.251971
                                                         0.253523       0.171733
                                                         0.085137       0.003829
                          1       5    4dxz              3.575233      -0.254191
                                                         1.347699       1.068308
                                                         0.614553       0.251971
                                                         0.253523       0.171733
                                                         0.085137       0.003829
                          1       5    4dy2              3.575233      -0.146757
                                                         1.347699       0.616788
                                                         0.614553       0.145475
                                                         0.253523       0.099150
                                                         0.085137       0.002211
                          1       5    4dyz              3.575233      -0.254191
                                                         1.347699       1.068308
                                                         0.614553       0.251971
                                                         0.253523       0.171733
                                                         0.085137       0.003829
                          1       5    4dz2              3.575233      -0.146757
                                                         1.347699       0.616788
                                                         0.614553       0.145475
                                                         0.253523       0.099150
                                                         0.085137       0.002211

     RI Auxiliary Basis Set             RI_aug-DZVP-MOLOPT-GTH-tier-2_N_RI_030_s

       Number of orbital shell sets:                                          10
       Number of orbital shells:                                              10
       Number of primitive Cartesian functions:                               10
       Number of Cartesian basis functions:                                   35
       Number of spherical basis functions:                                   30
       Norm type:                                                              2

       Normalised Cartesian orbitals:

                        Set   Shell   Orbital            Exponent    Coefficient

                          1       1    1s                0.180620       0.197463

                          2       1    5px               0.192166       0.181357
                          2       1    5py               0.192166       0.181357
                          2       1    5pz               0.192166       0.181357

                          3       1    8dx2              0.214984       0.111717
                          3       1    8dxy              0.214984       0.193500
                          3       1    8dxz              0.214984       0.193500
                          3       1    8dy2              0.214984       0.111717
                          3       1    8dyz              0.214984       0.193500
                          3       1    8dz2              0.214984       0.111717

                          4       1   10fx3              0.273802       0.079834
                          4       1   10fx2y             0.273802       0.178514
                          4       1   10fx2z             0.273802       0.178514
                          4       1   10fxy2             0.273802       0.178514
                          4       1   10fxyz             0.273802       0.309196
                          4       1   10fxz2             0.273802       0.178514
                          4       1   10fy3              0.273802       0.079834
                          4       1   10fy2z             0.273802       0.178514
                          4       1   10fyz2             0.273802       0.178514
                          4       1   10fz3              0.273802       0.079834

                          5       1    2s                0.404248       0.361324

                          6       1    6px               0.423273       0.486649
                          6       1    6py               0.423273       0.486649
                          6       1    6pz               0.423273       0.486649

                          7       1    9dx2              0.729666       0.948150
                          7       1    9dxy              0.729666       1.642244
                          7       1    9dxz              0.729666       1.642244
                          7       1    9dy2              0.729666       0.948150
                          7       1    9dyz              0.729666       1.642244
                          7       1    9dz2              0.729666       0.948150

                          8       1    7px               0.994960       1.416436
                          8       1    7py               0.994960       1.416436
                          8       1    7pz               0.994960       1.416436

                          9       1    3s                1.133703       0.783041

                         10       1    4s                3.536645       1.838035

       Atomic covalent radius [Angstrom]:                                  0.820

       Atomic van der Waals radius [Angstrom]:                             1.920

     GTH Potential information for                                    GTH-PBE-q3

       Description:                       Goedecker-Teter-Hutter pseudopotential
                                           Goedecker et al., PRB 54, 1703 (1996)
                                          Hartwigsen et al., PRB 58, 3641 (1998)
                                                      Krack, TCA 114, 145 (2005)

       Gaussian exponent of the core charge distribution:               2.848129
       Electronic configuration (s p d ...):                               2   1

       Parameters of the local part of the GTH pseudopotential:

                          rloc        C1          C2          C3          C4
                        0.418991   -5.859462    0.903756

       Parameters of the non-local part of the GTH (SOC) pseudopotential:

                   l      r(l)      h(i,j,l)
                                    k(i,j,l)
                   0    0.371320    6.297280
                   1    0.364563    0.000000
                                    0.000855

  2. Atomic kind: N                                     Number of atoms:       1

     Orbital Basis Set                                    DZVP-MOLOPT-PBE-GTH-q5

       Number of orbital shell sets:                                           1
       Number of orbital shells:                                               5
       Number of primitive Cartesian functions:                                5
       Number of Cartesian basis functions:                                   14
       Number of spherical basis functions:                                   13
       Norm type:                                                              2

       Normalised Cartesian orbitals:

                        Set   Shell   Orbital            Exponent    Coefficient

                          1       1    2s                7.677291      -0.433945
                                                         2.819662      -0.225884
                                                         1.091144       0.281004
                                                         0.431009       0.272485
                                                         0.138938       0.015194

                          1       2    3s                7.677291       0.166796
                                                         2.819662       0.071789
                                                         1.091144      -0.075890
                                                         0.431009      -0.026983
                                                         0.138938       0.175604

                          1       3    3px               7.677291      -1.160805
                                                         2.819662      -0.968875
                                                         1.091144      -0.555552
                                                         0.431009      -0.214049
                                                         0.138938      -0.025189
                          1       3    3py               7.677291      -1.160805
                                                         2.819662      -0.968875
                                                         1.091144      -0.555552
                                                         0.431009      -0.214049
                                                         0.138938      -0.025189
                          1       3    3pz               7.677291      -1.160805
                                                         2.819662      -0.968875
                                                         1.091144      -0.555552
                                                         0.431009      -0.214049
                                                         0.138938      -0.025189

                          1       4    4px               7.677291       1.006840
                                                         2.819662       0.803085
                                                         1.091144       0.516640
                                                         0.431009       0.089613
                                                         0.138938      -0.129545
                          1       4    4py               7.677291       1.006840
                                                         2.819662       0.803085
                                                         1.091144       0.516640
                                                         0.431009       0.089613
                                                         0.138938      -0.129545
                          1       4    4pz               7.677291       1.006840
                                                         2.819662       0.803085
                                                         1.091144       0.516640
                                                         0.431009       0.089613
                                                         0.138938      -0.129545

                          1       5    4dx2              7.677291       2.735993
                                                         2.819662       0.863524
                                                         1.091144       0.633376
                                                         0.431009       0.247924
                                                         0.138938       0.003429
                          1       5    4dxy              7.677291       4.738879
                                                         2.819662       1.495667
                                                         1.091144       1.097040
                                                         0.431009       0.429417
                                                         0.138938       0.005939
                          1       5    4dxz              7.677291       4.738879
                                                         2.819662       1.495667
                                                         1.091144       1.097040
                                                         0.431009       0.429417
                                                         0.138938       0.005939
                          1       5    4dy2              7.677291       2.735993
                                                         2.819662       0.863524
                                                         1.091144       0.633376
                                                         0.431009       0.247924
                                                         0.138938       0.003429
                          1       5    4dyz              7.677291       4.738879
                                                         2.819662       1.495667
                                                         1.091144       1.097040
                                                         0.431009       0.429417
                                                         0.138938       0.005939
                          1       5    4dz2              7.677291       2.735993
                                                         2.819662       0.863524
                                                         1.091144       0.633376
                                                         0.431009       0.247924
                                                         0.138938       0.003429

     RI Auxiliary Basis Set             RI_aug-DZVP-MOLOPT-GTH-tier-2_N_RI_044_s

       Number of orbital shell sets:                                          12
       Number of orbital shells:                                              12
       Number of primitive Cartesian functions:                               12
       Number of Cartesian basis functions:                                   56
       Number of spherical basis functions:                                   44
       Norm type:                                                              2

       Normalised Cartesian orbitals:

                        Set   Shell   Orbital            Exponent    Coefficient

                          1       1    1s                0.216310       0.226056

                          2       1    8dx2              0.265130       0.161236
                          2       1    8dxy              0.265130       0.279270
                          2       1    8dxz              0.265130       0.279270
                          2       1    8dy2              0.265130       0.161236
                          2       1    8dyz              0.265130       0.279270
                          2       1    8dz2              0.265130       0.161236

                          3       1    5px               0.268516       0.275520
                          3       1    5py               0.268516       0.275520
                          3       1    5pz               0.268516       0.275520

                          4       1    2s                0.713648       0.553379

                          5       1    9dx2              1.074492       1.866445
                          5       1    9dxy              1.074492       3.232778
                          5       1    9dxz              1.074492       3.232778
                          5       1    9dy2              1.074492       1.866445
                          5       1    9dyz              1.074492       3.232778
                          5       1    9dz2              1.074492       1.866445

                          6       1   12gx4              1.149451       1.632241
                          6       1   12gx3y             1.149451       4.318503
                          6       1   12gx3z             1.149451       4.318503
                          6       1   12gx2y2            1.149451       5.575164
                          6       1   12gx2yz            1.149451       9.656467
                          6       1   12gx2z2            1.149451       5.575164
                          6       1   12gxy3             1.149451       4.318503
                          6       1   12gxy2z            1.149451       9.656467
                          6       1   12gxyz2            1.149451       9.656467
                          6       1   12gxz3             1.149451       4.318503
                          6       1   12gy4              1.149451       1.632241
                          6       1   12gy3z             1.149451       4.318503
                          6       1   12gy2z2            1.149451       5.575164
                          6       1   12gyz3             1.149451       4.318503
                          6       1   12gz4              1.149451       1.632241

                          7       1    6px               1.180204       1.753422
                          7       1    6py               1.180204       1.753422
                          7       1    6pz               1.180204       1.753422

                          8       1   11fx3              1.269836       2.519920
                          8       1   11fx2y             1.269836       5.634713
                          8       1   11fx2z             1.269836       5.634713
                          8       1   11fxy2             1.269836       5.634713
                          8       1   11fxyz             1.269836       9.759610
                          8       1   11fxz2             1.269836       5.634713
                          8       1   11fy3              1.269836       2.519920
                          8       1   11fy2z             1.269836       5.634713
                          8       1   11fyz2             1.269836       5.634713
                          8       1   11fz3              1.269836       2.519920
[...]
 All-electron ab-initio molecular dynamics.
 https://doi.org/10.1039/b001167n

 G. Lippert, J. Hutter, M. Parrinello.
 Theor. Chem. Acc. 103, 124-140 (1999).
 The Gaussian and augmented-plane-wave density functional method for ab initio 
 molecular dynamics simulations.
 https://doi.org/10.1007/s002140050523

 C. Hartwigsen, S. Goedecker, J. Hutter.
 Phys. Rev. B 58, 3641-3662 (1998).
 Relativistic separable dual-space Gaussian pseudopotentials from H to Rn.
 https://doi.org/10.1103/PhysRevB.58.3641

 S. Goedecker, M. Teter, J. Hutter.
 Phys. Rev. B 54, 1703-1710 (1996).
 Separable dual-space Gaussian pseudopotentials.
 https://doi.org/10.1103/PhysRevB.54.1703

 J. P. Perdew, K. Burke, M. Ernzerhof.
 Phys. Rev. Lett. 77, 3865-3868 (1996).
 Generalized gradient approximation made simple.
 https://doi.org/10.1103/PhysRevLett.77.3865


 -------------------------------------------------------------------------------
 -                                                                             -
 -                                T I M I N G                                  -
 -                                                                             -
 -------------------------------------------------------------------------------
 SUBROUTINE                       CALLS  ASD         SELF TIME        TOTAL TIME
                                MAXIMUM       AVERAGE  MAXIMUM  AVERAGE  MAXIMUM
 CP2K                                 1  1.0     0.17     0.22 12408.07 12408.55
 qs_energies                          1  2.0     0.02     0.03 12269.62 12270.08
 qs_energies_properties               1  3.0     0.00     0.00 12035.66 12036.13
 post_scf_bandstructure               1  4.0     0.00     0.00 12035.66 12036.13
 gw                                   1  5.0     0.01     0.02 12014.90 12015.35
 gw_calc_small_cell_full_kp           1  6.0     0.00     0.01 11982.25 11982.73
 dbt_total                      *******  9.6    23.02    24.54  7180.37  8212.77
 dbt_contract                   6459160 10.4    44.56    46.14  6820.32  7861.55
 dbt_tas_multiply               7793652 12.9     6.37     7.14  6488.60  7518.91
 dbt_tas_total                  7793652 13.9   260.34   267.68  6484.62  7514.78
 compute_chi                          1  7.0     0.05     0.33  5693.03  5693.25
 dbt_tas_estimate_result_nze    3896826 13.4   107.74   112.00  3294.92  4003.62
 G_times_3c                       27804  8.0     8.56     9.05  2735.48  3272.83
 compute_Sigma_c                      1  7.0     0.00     0.00  2923.19  2923.41
 compute_W_real_space                 1  7.0     2.17     4.52  2554.08  2554.20
 mp_sync                        ******* 12.5  1471.08  2343.50  1471.08  2343.50
 contract_M_occ_vir_to_chi          103  8.0    45.04    48.89  1633.78  2217.43
 convert_to_new_pgrid           ******* 14.9    43.01    46.75  1654.14  2038.04
 dbm_copy                       ******* 15.9  1611.12  1994.84  1611.12  1994.84
 contract_to_Sigma                  219  8.0    28.01    30.40  1667.52  1843.17
 dbt_tas_dbm                    7793652 14.9     6.04     6.37  1566.14  1795.46
 dbm_multiply                   7793652 16.9  1553.20  1782.04  1553.20  1782.04
 fm_to_local_array                  934  8.1    10.66    16.05  1558.50  1558.82
 mp_sum_dm3                        1079  9.0  1550.02  1550.80  1550.02  1550.80
 contract_W                         114  8.0     9.14    10.83  1302.88  1418.32
 dbm_reserve_blocks             ******* 16.6   867.83  1195.24   867.83  1195.24
 contract_to_Sigma_3c_x_G       1592128  9.0     1.83     1.97  1031.49  1150.97
 reshape_mm_small               7793652 14.9   455.34   495.11   925.47  1046.21
 compute_Minv_and_Vsqrt               1  8.0     0.02     0.02   871.23   871.34
 build_2c_coulomb_matrix_kp_sma       2  9.0     4.93    10.81   866.97   867.04
 dbt_tas_mm_1N                  1932668 15.5     0.98     1.07   699.37   815.29
 dbt_tas_reserve_blocks_index   ******* 15.8    17.14    17.82   410.52   736.11
 dbt_tas_replicate              7793652 14.9    87.06    91.55   584.24   676.97
 contract_to_Sigma_contract       27405  9.0     8.29     8.84   599.41   663.49
 build_2c_coulomb_matrix_kp_sma  655360 10.0   639.93   660.11   639.93   660.11
 dbt_tas_mm_2                   2419082 16.0     2.03     2.26   478.00   656.64
 compute_Sigma_x                      1  7.0     0.00     0.01   629.94   630.14
 dbt_tas_reshape                9291638 15.4    41.38    43.22   416.94   530.33
 dbt_tas_create_split           ******* 16.0    12.83    13.75   444.51   460.14
 dbt_tas_create_split_rows_or_c ******* 17.0    47.07    49.00   431.68   446.58
 dbt_tas_mm_3T                  3717694 16.1     1.98     2.13   381.37   431.02
 dbt_copy                       9726289 10.8    35.33    37.86   395.98   427.67
 reshape_mm_compatible          7793652 14.9    59.75    61.85   413.25   425.94
 dbt_tas_reserve_blocks_templat ******* 14.1    16.43    17.89   166.14   386.98
 dbm_add                        7793652 14.9   279.36   382.32   279.36   382.32
 dbt_tas_reshape_buffer_obtain  9291638 16.4    43.22    46.57   257.15   369.15
 dbt_tas_distribution_new       ******* 15.7   165.05   171.61   321.64   332.30
 G_occ_vir                          121  8.0     0.26     0.28   293.24   299.70
 parallel_gemm_cfm               273920  9.0     0.16     0.20   279.06   285.59
 parallel_gemm_cfm_cosma         273920 10.0   278.90   285.44   278.90   285.44
 dbt_reshape                    6947135 11.7   169.09   192.08   255.32   284.57
 change_split                   ******* 15.4    19.24    20.03   272.76   284.42
 copy_dbcsr_to_fm                300696  7.9     1.52     1.64   250.54   265.82
 dbcsr_complete_redistribute     532999  9.5     9.24    20.82   229.06   246.13
 mp_cart_create                 ******* 16.6   207.65   214.94   229.21   237.10
 scf_env_do_scf                       1  3.0     0.00     0.00   233.55   233.57
 scf_env_do_scf_inner_loop           84  4.0     0.01     0.01   233.55   233.57
 mp_alltoall_i22                1012759  9.9   182.75   229.14   182.75   229.14
 qs_scf_new_mos_kp                   84  5.0     0.00     0.00   221.40   221.45
 do_general_diag_kp                  84  6.0     0.40     0.42   221.40   221.44
 get_t_3c_int                   4994488  9.3    13.00    13.82   192.11   212.65
 dbt_remap                       769072 11.0    68.02    76.08   190.23   203.81
 dbt_destroy                    ******* 10.8   182.05   193.92   185.42   197.33
 compute_QP_energies                  1  7.0     0.17     0.19   182.01   182.47
 trafo_to_k_and_nn                71492  8.0     0.22     0.27   181.70   182.17
 fm_to_local_tensor              146072  9.0     1.47     1.63   159.54   159.57
 dbt_tas_merge                  2419082 15.0    29.05    33.05   113.05   155.82
 mp_comm_dup                    ******* 18.5   134.77   140.74   147.21   153.82
 dbcsr_desymmetrize_deep         479760  8.2     3.61     4.22   129.55   153.23
 local_dbt_to_global_fm              91  8.0     0.14     0.15   149.73   149.74
 mp_sum_dm                       655613 10.0   119.17   139.02   119.17   139.02
 bs_env_release                       1  2.0     0.23     0.26   130.59   137.51
 mp_comm_split_direct           ******* 18.0    90.95    94.35    97.34   101.09
 mp_cart_sub                     601471  9.9    95.39    95.48    95.39    95.48
 copy_fm_to_dbcsr                232303  9.3     0.48     0.52    71.23    94.30
 mp_comm_free                   ******* 15.6    86.58    91.09    86.58    91.09
 dbt_tas_reshape_buffer_fill    9291638 16.4    79.03    85.95    79.03    85.95
 get_V_tr_R                          34  9.0     0.08     0.16    85.34    85.39
 local_dbt_to_global_mat          87451  9.0     0.30     0.32    43.86    85.12
 global_matrix_to_local_matrix   146072 10.0     1.22     2.01    75.39    83.15
 mult_W_with_Minv                    30  8.0     0.13     0.14    82.82    82.82
 dbt_permute_index              ******* 12.1    66.80    70.61    75.62    79.97
 dbt_tas_create_new             ******* 15.3    73.01    77.56    73.01    77.56
 reshape_mm_template            1538144 15.5    47.97    53.02    70.50    75.17
 dbt_reserve_blocks_index_array 7636516 12.8     4.90     5.66    57.46    73.11
 local_matrix_to_global_matrix    87451 10.0     0.16     0.17    31.56    72.95
 mp_max_i                       ******* 11.4     9.67    71.00     9.67    71.00
 dbt_reserve_blocks_index       7831104 13.7     6.12     6.72    54.65    70.26
 add_V_L                         327680 10.0     2.08    67.14     2.08    67.14
 dbt_tas_copy                   3330553 12.3    26.71    32.23    57.22    66.25
 dbt_align_index                ******* 11.4    10.68    11.09    61.09    64.27
 fm_add_ikp_to_rs                123904  9.0    35.56    39.02    54.10    59.76
 comm_data                        87451 11.0     0.15     1.41    22.83    59.32
 mp_waitall_2                    174902 12.0    21.84    57.11    21.84    57.11
 add_rs_to_ikp                  *******  9.9    53.38    56.31    53.38    56.31
 dbt_distribution_new_expert    1830298 12.3     9.29     9.96    51.96    55.43
 add_R                          *******  9.3    32.65    34.81    48.14    50.94
 dbt_tas_mp_comm                4645819 13.0     6.22     6.54    48.24    50.84
 add_ikp_to_rs                  *******  9.9    46.97    50.12    46.97    50.12
 fm_MWM_R_t_to_local_tensor_W_R      30  8.0     0.02     0.02    48.59    48.61
 trafo_rs_to_ikp                  10736  8.1     3.53     3.73    46.05    47.63
 mp_waitall_1                   1674900 10.9    37.84    45.49    37.84    45.49
 send_data                       146072 11.0     0.09     0.10    34.70    42.81
 communicate_buffer              146072 12.0     0.56     9.29    34.61    42.71
 kpoint_density_transform            84  7.0     0.13     0.13    40.48    40.52
 mp_comm_size                   ******* -6.5    35.57    39.24    35.57    39.24
 mp_cart_get                    ******* ****    35.30    37.80    35.30    37.80
 cp_fm_start_copy_general        258048  7.3     1.08     1.95    34.42    35.38
 add_ikp_to_all_rs                 9848  8.0     3.10     3.28    31.55    35.02
 fm_trafo_rs_to_ikp               71492  9.0    20.81    21.56    31.67    34.50
 dbt_communicate_buffer         6947135 12.7    29.60    32.72    29.60    32.72
 create_and_init_bs_env_for_gw        1  6.0     0.02     0.04    32.64    32.68
 mp_sum_i                       6493228 15.9    30.79    31.66    30.79    31.66
 destroy_t_1d                        98  8.0     0.14     0.16    25.64    30.73
 send_sizes_1                    146072 11.0     0.08     0.09    29.23    30.11
 dbt_create_new                  915149 11.8     5.66     6.15    27.61    29.31
 is_cell_in_index_to_cell       *******  9.7    27.28    29.08    27.28    29.08
 mp_allgather_i                  516096  8.3    26.22    28.19    26.22    28.19
 mp_comm_rank                   ******* -6.5    23.96    25.48    23.96    25.48
 dbm_filter                     ******* 14.8    23.73    25.04    23.73    25.04
 mp_alltoall_d11v               3038277 10.4     7.53    24.46     7.53    24.46
 dbt_copy_nocomm                 761839 11.0    12.48    15.86    19.68    24.42
 dbt_create_3c_R1_R2                 62  8.0     4.76     5.12    23.20    23.97
 rskp_transform                   89532  7.1     0.30    23.79     0.30    23.79
 dbcsr_finalize                 1975934 10.9     3.60     4.20    18.30    21.57
 dbt_create_template            6216434  9.0    19.30    20.12    19.30    20.12
 mp_alltoall_i                  ******* 15.3    17.56    18.46    17.56    18.46
 compute_3c_integrals                 1  7.0     0.08     0.08    17.97    18.03
 destroy_t_2d                        62  8.0     5.14     6.31    16.06    17.74
 build_3c_integrals                   1  8.0    15.40    16.01    16.84    17.44
 dbt_tas_reshape_communicate_bu 9291638 16.4     4.95     5.18    14.93    17.42
 power                            20408  8.0     1.27     1.37    16.41    16.65
 dbt_tas_communicate_buffer     ******* 17.2    13.66    16.38    13.66    16.38
 diag_complex                     20408  9.0    15.13    15.37    15.13    15.37
 create_and_init_bs_env               1  5.0     0.00     0.00    15.29    15.31
 compute_cfm_mo_coeff_kp_and_ei       1  6.0     0.00     0.00    15.27    15.28
 mp_alltoall_i11v               2078757 10.2    11.64    15.16    11.64    15.16
 dbm_scale                      9516293 14.4    14.08    14.89    14.08    14.89
 dbt_tas_reshape_get_coord      9291638 16.4    13.30    14.47    13.30    14.47
 dbt_create_matrix               146072 10.0     0.80     0.85    13.73    14.40
 get_data                        146072 11.0     2.29    13.84     2.50    14.09
 dbt_pgrid_create_expert        1830301 13.3     1.95     2.14    12.59    13.55
 mp_sum_dv                        78781  8.9     9.34    11.78     9.34    11.78
 transform_dmat                   43008  8.0     0.13    11.35     0.13    11.35
 mp_sum_l                       ******* 15.0    10.22    11.20    10.22    11.20
 dbcsr_filter_anytype            664927 11.0     1.47     1.54     7.76    11.09
 get_Minv_Vtr_Minv_R                  1  8.0     0.01     0.01    10.46    10.48
 dbcsr_merge_all                 759882 11.7     6.46     7.03     9.17    10.22
 cp_cfm_geeig_canon                1172  7.0     0.00     0.00     9.90     9.93
 dbt_create_2c_R                     98  8.0     8.34     9.23     8.64     9.52
 cp_cfm_heevd                      2680  8.0     0.00     0.00     9.47     9.49
 cp_cfm_heevd_base                 2680  9.0     9.46     9.49     9.46     9.49
 dbt_nd_mp_comm                  915144 11.8     1.24     1.41     8.66     9.48
 dbt_tas_reshape_alltoall       9291638 16.4     4.58     5.07     8.49     9.29
 dbt_reserve_blocks_template     761839 12.0     1.14     1.45     7.20     8.76
 qs_ks_update_qs_env                 84  5.0     0.00     0.00     5.84     8.41
 qs_ks_build_kohn_sham_matrix        87  7.0     0.02     0.03     5.32     7.98
 set_blocks                       87451 11.0     0.99     3.54     3.27     7.80
 rsmat_to_kp                       3516  7.3     0.03     0.03     7.71     7.75
 rebuild_ks_matrix                   84  6.0     0.00     0.00     5.15     7.72
 mp_bcast_iv                    1032254  8.3     5.34     6.20     5.34     6.20
 mp_bcast_i                     ******* 18.0     5.59     6.18     5.59     6.18
 dbt_tas_replicate_communicate_ 5616722 15.9     2.95     3.16     5.52     6.00
 dos_pdos_ldos                        1  5.0     0.00     0.00     5.47     5.49
 dbcsr_work_create              1239642 10.2     3.19     3.98     4.54     5.46
 mp_dims_create                 ******* 14.3     4.73     5.24     4.73     5.24
 send_sizes_2                    146072 11.0     0.09     0.10     4.95     5.19
 compute_proj_mo_on_kind           1172  6.0     0.01     0.01     5.06     5.07
 trafo_V_xc_R_to_kp                   1  7.0     0.00     0.01     4.96     4.99
 dbcsr_iterator_start           4394597 10.7     3.87     4.06     4.60     4.81
 dbcsr_create_new               1743939  9.8     3.66     3.87     4.56     4.76
 dbt_distribution_destroy       1830298 12.3     3.23     3.56     4.18     4.53
 dbt_tas_replicate_alltoall     5616722 15.9     2.59     2.83     4.10     4.52
 mp_isend_dv                    ******* 10.6     1.08     4.46     1.08     4.46
 qs_rho_update_rho_low               85  5.0     0.00     0.00     4.33     4.34
 heuristic_RI_regularization          1  7.0     0.00     0.00     4.10     4.10
 transfer_pw2rs                     436 10.6     0.00     0.00     3.96     4.00
 sum_up_and_integrate                87  8.0     0.00     0.01     1.22     3.98
 integrate_v_rspace                  87  9.0     0.00     0.02     1.22     3.97
 mp_cart_rank                   ******* 15.9     3.44     3.91     3.44     3.91
 dbcsr_work_destroy_all         1239642 11.1     2.31     2.74     3.21     3.82
 copy_fm_to_dbcsr_bc             232303 10.3     1.04     1.12     3.67     3.79
 transfer_pw2rs_250                 175 11.0     0.07     0.08     3.67     3.72
 setup_parallelization_Delta_R        1  7.0     0.00     0.00     3.49     3.49
 compute_n_tensor_ops_Delta_R         1  8.0     0.91     1.46     3.48     3.48
 mp_isend_im2                   ******* 12.8     0.07     3.34     0.07     3.34
 dbt_copy_matrix_to_tensor       146072 10.0     0.72     0.75     2.79     3.32
 comm_size                        87451 11.0     0.07     0.07     3.06     3.31
 dbt_buffer_get_index           ******* 16.7     2.86     3.25     2.86     3.25
 dbcsr_data_release             ******* 11.6     2.67     3.10     2.67     3.10
 integrate_vhg0_rspace               87  8.0     0.00     0.01     2.93     2.97
 transfer_rs2pw                     429  8.4     0.00     0.00     2.79     2.91
 dbt_tas_merge_communicate_buff 2419082 16.0     1.25     1.44     2.36     2.88
 calculate_rho_elec                  85  6.0     0.00     0.01     2.87     2.88
 dbcsr_iterator_stop            4394597 10.7     2.20     2.31     2.72     2.84
 transfer_rs2pw_250                 174 10.0     0.11     0.13     2.69     2.82
 dbcsr_data_new                 ******* 11.1     2.50     2.79     2.50     2.79
 mp_sendrecv_dv                   54483 10.4     2.66     2.78     2.66     2.78
 update_ks_atom                      87  8.0     0.03     2.69     0.12     2.78
 grid_integrate_task_list            87 10.0     0.03     2.78     0.03     2.78
 build_2c_integrals                  34 10.0     0.05     1.36     0.13     2.77
 density_rs2pw                       85  7.0     0.00     0.00     2.67     2.72
 dbcsr_destroy                  1619723  9.5     1.32     1.48     2.43     2.67
 fill_buffer                      87451 11.0     1.22     2.47     1.34     2.61
 grid_collocate_task_list            85  7.0     0.20     2.45     0.20     2.45
 dbt_tas_merge_alltoall         2419082 16.0     1.16     1.29     2.11     2.38
 mp_sum_iv                           24  6.1     1.33     2.35     1.33     2.35
 dbt_reserve_blocks_matrix_to_t  146072 11.0     0.38     0.41     1.73     2.22
 hybrid_alltoall_any             479760  9.2     1.13     1.18     1.77     2.14
 reserve_blocks                  146072 11.0     0.32     0.34     1.92     2.06
 mp_bcast_im                     516096  8.3     1.41     1.92     1.41     1.92
 tree_to_linear_d                597408 12.5     1.64     1.77     1.64     1.77
 copy_dbcsr_to_fm_bc             300696  8.9     0.77     0.85     1.62     1.70
 dbcsr_reserve_blocks            594992 12.2     0.86     1.35     1.11     1.67
 write_kpoints_restart               84  5.0     0.00     0.06     1.54     1.55
 quick_finalize                  479760 10.2     0.66     0.86     1.11     1.54
 calculate_rho_atom_coeff            85  6.0     0.02     1.07     1.46     1.46
 dbcsr_copy                      210447  9.8     0.35     0.53     0.93     1.37
 dbcsr_set                      1625496 10.3     0.76     0.81     1.16     1.34
 setup_cells_3c                       1  7.0     0.02     0.03     1.27     1.30
 get_coord                        87451 11.0     0.47     0.51     0.90     1.25
 -------------------------------------------------------------------------------

 The number of warnings for this run is : 1
 
 -------------------------------------------------------------------------------
  **** **** ******  **  PROGRAM ENDED AT                 2025-09-11 05:32:47.618
 ***** ** ***  *** **   PROGRAM RAN ON                                  n2cn0202
 **    ****   ******    PROGRAM RAN BY                                  metdyn02
 ***** **    ** ** **   PROGRAM PROCESS ID                                260889
  **** **  *******  **  PROGRAM STOPPED IN /scratch/hpc-prf-metdyn/metdyn02_Remi
                                           /14_hBN/DZVP-MOLOPT
